
                                 *****************
                                 * O   R   C   A *
                                 *****************

           --- An Ab Initio, DFT and Semiempirical electronic structure package ---

                  #######################################################
                  #                        -***-                        #
                  #          Department of theory and spectroscopy      #
                  #               Directorship: Frank Neese             #
                  #        Max Planck Institute fuer Kohlenforschung    #
                  #                Kaiser Wilhelm Platz 1               #
                  #                 D-45470 Muelheim/Ruhr               #
                  #                      Germany                        #
                  #                                                     #
                  #                  All rights reserved                #
                  #                        -***-                        #
                  #######################################################


                         Program Version 4.2.1 -  RELEASE  -


 With contributions from (in alphabetic order):
   Daniel Aravena         : Magnetic Suceptibility
   Michael Atanasov       : Ab Initio Ligand Field Theory (pilot matlab implementation)
   Alexander A. Auer      : GIAO ZORA, VPT2
   Ute Becker             : Parallelization
   Giovanni Bistoni       : ED, misc. LED, open-shell LED, HFLD
   Martin Brehm           : Molecular dynamics
   Dmytro Bykov           : SCF Hessian
   Vijay G. Chilkuri      : MRCI spin determinant printing, contributions to CSF-ICE
   Dipayan Datta          : RHF DLPNO-CCSD density
   Achintya Kumar Dutta   : EOM-CC, STEOM-CC
   Dmitry Ganyushin       : Spin-Orbit,Spin-Spin,Magnetic field MRCI
   Miquel Garcia          : C-PCM Hessian, Gaussian charge scheme
   Yang Guo               : DLPNO-NEVPT2, CIM, IAO-localization
   Andreas Hansen         : Spin unrestricted coupled pair/coupled cluster methods
   Benjamin Helmich-Paris : CASSCF linear response (MC-RPA)
   Lee Huntington         : MR-EOM, pCC
   Robert Izsak           : Overlap fitted RIJCOSX, COSX-SCS-MP3, EOM
   Christian Kollmar      : KDIIS, OOCD, Brueckner-CCSD(T), CCSD density
   Simone Kossmann        : Meta GGA functionals, TD-DFT gradient, OOMP2, MP2 Hessian
   Martin Krupicka        : AUTO-CI
   Lucas Lang             : DCDCAS
   Dagmar Lenk            : GEPOL surface, SMD
   Dimitrios Liakos       : Extrapolation schemes; Compound Job, initial MDCI parallelization
   Dimitrios Manganas     : Further ROCIS development; embedding schemes
   Dimitrios Pantazis     : SARC Basis sets
   Taras Petrenko         : DFT Hessian,TD-DFT gradient, ASA, ECA, R-Raman, ABS, FL, XAS/XES, NRVS
   Peter Pinski           : DLPNO-MP2, DLPNO-MP2 Gradient
   Christoph Reimann      : Effective Core Potentials
   Marius Retegan         : Local ZFS, SOC
   Christoph Riplinger    : Optimizer, TS searches, QM/MM, DLPNO-CCSD(T), (RO)-DLPNO pert. Triples
   Tobias Risthaus        : Range-separated hybrids, TD-DFT gradient, RPA, STAB
   Michael Roemelt        : Original ROCIS implementation
   Masaaki Saitow         : Open-shell DLPNO-CCSD energy and density
   Barbara Sandhoefer     : DKH picture change effects
   Avijit Sen             : IP-ROCIS
   Kantharuban Sivalingam : CASSCF convergence, NEVPT2, FIC-MRCI
   Bernardo de Souza      : ESD, SOC TD-DFT
   Georgi Stoychev        : AutoAux, RI-MP2 NMR
   Willem Van den Heuvel  : Paramagnetic NMR
   Boris Wezisla          : Elementary symmetry handling
   Frank Wennmohs         : Technical directorship


 We gratefully acknowledge several colleagues who have allowed us to
 interface, adapt or use parts of their codes:
   Stefan Grimme, W. Hujo, H. Kruse,             : VdW corrections, initial TS optimization,
                  C. Bannwarth                     DFT functionals, gCP, sTDA/sTD-DF
   Ed Valeev, F. Pavosevic, A. Kumar             : LibInt (2-el integral package), F12 methods
   Garnet Chan, S. Sharma, J. Yang, R. Olivares  : DMRG
   Ulf Ekstrom                                   : XCFun DFT Library
   Mihaly Kallay                                 : mrcc  (arbitrary order and MRCC methods)
   Andreas Klamt, Michael Diedenhofen            : otool_cosmo (COSMO solvation model)
   Jiri Pittner, Ondrej Demel                    : Mk-CCSD
   Frank Weinhold                                : gennbo (NPA and NBO analysis)
   Christopher J. Cramer and Donald G. Truhlar   : smd solvation model
   Lars Goerigk                                  : TD-DFT with DH, B97 family of functionals
   V. Asgeirsson, H. Jonsson                     : NEB implementation
   FAccTs GmbH                                   : IRC, NEB, NEB-TS, Multilevel, MM, QM/MM, CI optimization
   S Lehtola, MJT Oliveira, MAL Marques          : LibXC Library


 Your calculation uses the libint2 library for the computation of 2-el integrals
 For citations please refer to: http://libint.valeyev.net

 Your ORCA version has been built with support for libXC version: 4.2.3
 For citations please refer to: https://tddft.org/programs/libxc/

 This ORCA versions uses:
   CBLAS   interface :  Fast vector & matrix operations
   LAPACKE interface :  Fast linear algebra routines
   SCALAPACK package :  Parallel linear algebra routines


leaving
----- Orbital basis set information -----
Your calculation utilizes the basis: def2-SVP
   F. Weigend and R. Ahlrichs, Phys. Chem. Chem. Phys. 7, 3297 (2005).

================================================================================
                                        WARNINGS
                       Please study these warnings very carefully!
================================================================================


WARNING: Direct SCF is incompatible with Method<>HF and Method<>DFT
  ===> : conventional SCF is chosen

WARNING: The NDO methods need Guess=HUECKEL or Guess=HCORE or Guess=MOREAD
  ===> : Guess is set to Hueckel

WARNING: The NDO methods need %rel::SOCType==1
  ===> : %rel::SOCType is set to 1

WARNING: The NDO methods cannot have frozencore=1
  ===> : %method FrozenCore=0 end

INFO   : the flag for use of LIBINT has been found!

================================================================================
                                       INPUT FILE
================================================================================
NAME = 1.inp
|  1> !zindo/s tightscf
|  2> %output Print[P_OVERLAP] 1 end
|  3> # %cis nroots 20 dotrans all donto true triplets true end
|  4> *xyz 0 1
|  5>   C   1.82868189498644     -1.12568448671555     -0.11668508576230
|  6>   C   0.86073330841555     -0.38750890026130      0.54700557220456
|  7>   C   2.82457707278590     -1.77413785804051      0.60333732140804
|  8>   C   0.88748656122741     -0.29675789586408      1.93081821192431
|  9>   C   2.85051088582409     -1.68337170150631      1.98337718013689
| 10>   C   1.88183259800218     -0.94380310813381      2.65779697676493
| 11>   C   1.95012783005334     -0.87542052659737      4.15436663216222
| 12>   C   0.90161026641721     -0.07366951716518      4.88772760132817
| 13>   O   2.82617692482010     -1.45104219459857      4.75837980334316
| 14>   H   1.80813085503021     -1.19657204492586     -1.19477572316912
| 15>   H   0.08569654239513      0.11716212974510     -0.01115396027159
| 16>   H   3.57875121772189     -2.34921084889001      0.08595121337892
| 17>   H   0.12925020320207      0.28032533530661      2.43853666479911
| 18>   H   3.61421515995847     -2.17883879290430      2.56371628941295
| 19>   H   -0.09247172191325     -0.47103053572633      4.68627203668800
| 20>   H   0.91342593248451      0.96467512277121      4.55915523024135
| 21>   H   1.10576446858875     -0.12361417649373      5.95157403541037
| 22> *
| 23> 
| 24>                          ****END OF INPUT****
================================================================================

                       ****************************
                       * Single Point Calculation *
                       ****************************

---------------------------------
CARTESIAN COORDINATES (ANGSTROEM)
---------------------------------
  C      1.828682   -1.125684   -0.116685
  C      0.860733   -0.387509    0.547006
  C      2.824577   -1.774138    0.603337
  C      0.887487   -0.296758    1.930818
  C      2.850511   -1.683372    1.983377
  C      1.881833   -0.943803    2.657797
  C      1.950128   -0.875421    4.154367
  C      0.901610   -0.073670    4.887728
  O      2.826177   -1.451042    4.758380
  H      1.808131   -1.196572   -1.194776
  H      0.085697    0.117162   -0.011154
  H      3.578751   -2.349211    0.085951
  H      0.129250    0.280325    2.438537
  H      3.614215   -2.178839    2.563716
  H     -0.092472   -0.471031    4.686272
  H      0.913426    0.964675    4.559155
  H      1.105764   -0.123614    5.951574

----------------------------
CARTESIAN COORDINATES (A.U.)
----------------------------
  NO LB      ZA    FRAG     MASS         X           Y           Z
   0 C     4.0000    0    12.011    3.455708   -2.127235   -0.220503
   1 C     4.0000    0    12.011    1.626550   -0.732286    1.033691
   2 C     4.0000    0    12.011    5.337677   -3.352635    1.140142
   3 C     4.0000    0    12.011    1.677107   -0.560791    3.648718
   4 C     4.0000    0    12.011    5.386685   -3.181111    3.748040
   5 C     4.0000    0    12.011    3.556148   -1.783529    5.022508
   6 C     4.0000    0    12.011    3.685208   -1.654305    7.850615
   7 C     4.0000    0    12.011    1.703796   -0.139215    9.236467
   8 O     6.0000    0    15.999    5.340700   -2.742072    8.992035
   9 H     1.0000    0     1.008    3.416872   -2.261193   -2.257799
  10 H     1.0000    0     1.008    0.161943    0.221404   -0.021078
  11 H     1.0000    0     1.008    6.762860   -4.439365    0.162424
  12 H     1.0000    0     1.008    0.244247    0.529738    4.608166
  13 H     1.0000    0     1.008    6.829877   -4.117409    4.844722
  14 H     1.0000    0     1.008   -0.174746   -0.890119    8.855771
  15 H     1.0000    0     1.008    1.726125    1.822972    8.615555
  16 H     1.0000    0     1.008    2.089592   -0.233597   11.246845

--------------------------------
INTERNAL COORDINATES (ANGSTROEM)
--------------------------------
 C      0   0   0     0.000000000000     0.00000000     0.00000000
 C      1   0   0     1.386475009567     0.00000000     0.00000000
 C      1   2   0     1.389507555494   120.05210565     0.00000000
 C      2   1   3     1.387043223257   119.93010293     0.00000000
 C      3   1   2     1.383264641893   119.98626775     0.00000000
 C      4   2   1     1.391362523608   120.30710584     0.00000000
 C      6   4   2     1.499687017225   122.19132864   180.06864883
 C      7   6   4     1.509970884976   118.50646594   359.91298993
 O      7   6   4     1.209807518605   120.63100011   179.87848403
 H      1   2   3     1.080614090976   119.94841846   179.99421360
 H      2   1   3     1.080239279468   120.15136175   180.00742008
 H      3   1   2     1.080359185862   120.03849103   180.00478348
 H      4   2   1     1.079687666744   119.37841264   180.00974055
 H      5   3   1     1.079594988292   121.29520753   179.97832976
 H      8   7   6     1.089348026629   110.49768431    60.13686095
 H      8   7   6     1.089155179160   110.61885624   301.12571962
 H      8   7   6     1.084408890857   108.74067766   180.54164895

---------------------------
INTERNAL COORDINATES (A.U.)
---------------------------
 C      0   0   0     0.000000000000     0.00000000     0.00000000
 C      1   0   0     2.620058059608     0.00000000     0.00000000
 C      1   2   0     2.625788740898   120.05210565     0.00000000
 C      2   1   3     2.621131827867   119.93010293     0.00000000
 C      3   1   2     2.613991343914   119.98626775     0.00000000
 C      4   2   1     2.629294122620   120.30710584     0.00000000
 C      6   4   2     2.833997749153   122.19132864   180.06864883
 C      7   6   4     2.853431442799   118.50646594   359.91298993
 O      7   6   4     2.286204884923   120.63100011   179.87848403
 H      1   2   3     2.042064688401   119.94841846   179.99421360
 H      2   1   3     2.041356397299   120.15136175   180.00742008
 H      3   1   2     2.041582987545   120.03849103   180.00478348
 H      4   2   1     2.040314000319   119.37841264   180.00974055
 H      5   3   1     2.040138863425   121.29520753   179.97832976
 H      8   7   6     2.058569434855   110.49768431    60.13686095
 H      8   7   6     2.058205005954   110.61885624   301.12571962
 H      8   7   6     2.049235820909   108.74067766   180.54164895

----------------------------
SLATER BASIS SET DIM=  44
----------------------------
  0 C     2 shells
 l=0 nsto= 1
    2       1.625000000000        1.000000000000
 l=1 nsto= 1
    2       1.625000000000        1.000000000000
  1 C     2 shells
 l=0 nsto= 1
    2       1.625000000000        1.000000000000
 l=1 nsto= 1
    2       1.625000000000        1.000000000000
  2 C     2 shells
 l=0 nsto= 1
    2       1.625000000000        1.000000000000
 l=1 nsto= 1
    2       1.625000000000        1.000000000000
  3 C     2 shells
 l=0 nsto= 1
    2       1.625000000000        1.000000000000
 l=1 nsto= 1
    2       1.625000000000        1.000000000000
  4 C     2 shells
 l=0 nsto= 1
    2       1.625000000000        1.000000000000
 l=1 nsto= 1
    2       1.625000000000        1.000000000000
  5 C     2 shells
 l=0 nsto= 1
    2       1.625000000000        1.000000000000
 l=1 nsto= 1
    2       1.625000000000        1.000000000000
  6 C     2 shells
 l=0 nsto= 1
    2       1.625000000000        1.000000000000
 l=1 nsto= 1
    2       1.625000000000        1.000000000000
  7 C     2 shells
 l=0 nsto= 1
    2       1.625000000000        1.000000000000
 l=1 nsto= 1
    2       1.625000000000        1.000000000000
  8 O     2 shells
 l=0 nsto= 1
    2       2.275000000000        1.000000000000
 l=1 nsto= 1
    2       2.275000000000        1.000000000000
  9 H     1 shells
 l=0 nsto= 1
    1       1.200000000000        1.000000000000
 10 H     1 shells
 l=0 nsto= 1
    1       1.200000000000        1.000000000000
 11 H     1 shells
 l=0 nsto= 1
    1       1.200000000000        1.000000000000
 12 H     1 shells
 l=0 nsto= 1
    1       1.200000000000        1.000000000000
 13 H     1 shells
 l=0 nsto= 1
    1       1.200000000000        1.000000000000
 14 H     1 shells
 l=0 nsto= 1
    1       1.200000000000        1.000000000000
 15 H     1 shells
 l=0 nsto= 1
    1       1.200000000000        1.000000000000
 16 H     1 shells
 l=0 nsto= 1
    1       1.200000000000        1.000000000000

Checking for AutoStart:
The File: 1.gbw exists
Trying to determine its content:
     ... Fine, the file contains calculation information
     ... Fine, the calculation information was read
     ... Fine, the file contains a basis set
     ... Fine, the basis set was read
     ... Fine, the file contains a geometry
     ... Fine, the geometry was read
     ... Fine, the file contains a set of orbitals
     ... Fine, the orbitals can be read
     => possible old guess file was deleted
     => GBW file was renamed to GES file
     => GES file is set as startup file
     => Guess is set to MORead
     ... now leaving AutoStart

------------------------------------------------------------------------------
                           ORCA NDO INTEGRAL CALCULATION
------------------------------------------------------------------------------

--------------
NDO PARAMETERS
--------------

Gamma integral treatment              ... Mataga-Nishimoto
Nuclear repulsuion treatment          ... Direct (ZA*ZB/RAB)
Interaction factors:
s-s (sigma) =    1.0000
s-p (sigma) =    1.0000
s-d (sigma) =    1.0000
p-p (sigma) =    1.2670  p-p(pi) =    0.5850
p-d (sigma) =    1.0000  p-d(pi) =    1.0000
d-d (sigma) =    1.0000  d-d(pi) =    1.0000 d-d (delta) =    1.0000

fGamma parameter for Mataga-Nishimoto gamma integrals:    1.2000

--------------------------
Parameters for Element H :
--------------------------
 One-electron parameters (in eV)
  U(s)  =   -13.060000 Beta(s) =    12.000000 Neff(s) =     1.000000
 One-center electron repulsion parameters (in eV)
  G(s,s)=    12.850000
--------------------------
Parameters for Element C :
--------------------------
 One-electron parameters (in eV)
  U(s)  =   -50.870766 Beta(s) =    17.000000 Neff(s) =     2.000000
  U(p)  =   -41.599980 Beta(p) =    17.000000 Neff(p) =     2.000000 
 One-center electron repulsion parameters (in eV)
  G(s,s)=    11.110000
  G(s,p)=    11.110000 G(p,p)  =    11.110000
 Slater-Condon parameters (in eV)
 F2(p,p)=     4.5098 G1(s,p)=    6.8977
--------------------------
Parameters for Element O :
--------------------------
 One-electron parameters (in eV)
  U(s)  =   -90.023218 Beta(s) =    34.000000 Neff(s) =     2.000000
  U(p)  =   -76.684970 Beta(p) =    34.000000 Neff(p) =     4.000000 
 One-center electron repulsion parameters (in eV)
  G(s,s)=    13.000000
  G(s,p)=    13.000000 G(p,p)  =    13.000000
 Slater-Condon parameters (in eV)
 F2(p,p)=     6.9027 G1(s,p)=   11.8152

 Number of atoms                    ....   17
 Number of basis functions          ....   44

 Overlap integrals                  .... done
 One electron matrix                .... done
 Nuclear repulsion                  .... done
 Integral list                      .... done
 Electron-electron repulsion        .... done
-------------------------------------------------------------------------------
                                 ORCA SCF
-------------------------------------------------------------------------------

------------
SCF SETTINGS
------------
Hamiltonian:
 ZDO-Hamiltonian        Method          .... INDO


General Settings:
 Integral files         IntName         .... 1
 Hartree-Fock type      HFTyp           .... RHF
 Total Charge           Charge          ....    0
 Multiplicity           Mult            ....    1
 Number of Electrons    NEL             ....   46
 Basis Dimension        Dim             ....   44
 Nuclear Repulsion      ENuc            ....    205.9350272612 Eh

Convergence Acceleration:
 DIIS                   CNVDIIS         .... on
   Start iteration      DIISMaxIt       ....    12
   Startup error        DIISStart       ....  0.200000
   # of expansion vecs  DIISMaxEq       ....     5
   Bias factor          DIISBfac        ....   1.050
   Max. coefficient     DIISMaxC        ....  10.000
 Newton-Raphson         CNVNR           .... off
 SOSCF                  CNVSOSCF        .... on
   Start iteration      SOSCFMaxIt      ....   150
   Startup grad/error   SOSCFStart      ....  0.003300
 Level Shifting         CNVShift        .... on
   Level shift para.    LevelShift      ....    0.2500
   Turn off err/grad.   ShiftErr        ....    0.0010
 Zerner damping         CNVZerner       .... off
 Static damping         CNVDamp         .... on
   Fraction old density DampFac         ....    0.7000
   Max. Damping (<1)    DampMax         ....    0.9800
   Min. Damping (>=0)   DampMin         ....    0.0000
   Turn off err/grad.   DampErr         ....    0.1000
 Fernandez-Rico         CNVRico         .... off

SCF Procedure:
 Maximum # iterations   MaxIter         ....   125
 SCF integral mode      SCFMode         .... Conventional
 Integral Buffer length BufferLength    .... 1048576
 Integral index format  IndFormat       ....     0
 Integral value format  ValFormat       ....     0
 Integral Storage       Thresh          ....  2.500e-11 Eh

Convergence Tolerance:
 Convergence Check Mode ConvCheckMode   .... Total+1el-Energy
 Convergence forced     ConvForced      .... 0
 Energy Change          TolE            ....  1.000e-08 Eh
 1-El. energy change                    ....  1.000e-05 Eh
 Orbital Gradient       TolG            ....  1.000e-05
 Orbital Rotation angle TolX            ....  1.000e-05
 DIIS Error             TolErr          ....  5.000e-07


Diagonalization of the overlap matrix:
Smallest eigenvalue                        ... 1.434e-01
Time for diagonalization                   ...    0.006 sec
Threshold for overlap eigenvalues          ... 1.000e-08
Number of eigenvalues below threshold      ... 0
Time for construction of square roots      ...    0.000 sec
Total time needed                          ...    0.006 sec

--------------
OVERLAP MATRIX
--------------
                  0          1          2          3          4          5    
      0       1.000000   0.000000   0.000000   0.000000   0.413243  -0.199950
      1       0.000000   1.000000   0.000000   0.000000   0.199950   0.117020
      2       0.000000   0.000000   1.000000   0.000000  -0.291613   0.193812
      3       0.000000   0.000000   0.000000   1.000000   0.222390  -0.147804
      4       0.413243   0.199950  -0.291613   0.222390   1.000000   0.000000
      5      -0.199950   0.117020   0.193812  -0.147804   0.000000   1.000000
      6       0.291613   0.193812  -0.032751   0.215563   0.000000   0.000000
      7      -0.222390  -0.147804   0.215563   0.085518   0.000000   0.000000
      8       0.411728   0.215931   0.298664  -0.194468   0.089056   0.002713
      9      -0.215931   0.093197  -0.215006   0.139996  -0.002713   0.035316
     10      -0.298664  -0.215006  -0.048739   0.193634  -0.094598  -0.003441
     11       0.194468   0.139996   0.193634   0.122564   0.066794   0.002429
     12       0.089622   0.099353  -0.045670   0.040223   0.412959   0.416544
     13      -0.099353  -0.095828   0.060454  -0.053243  -0.416544  -0.327381
     14       0.045670   0.060454   0.007896   0.024475  -0.008053  -0.011156
     15      -0.040223  -0.053243   0.024475   0.014131  -0.027317  -0.037843
     16       0.089616   0.101896   0.049579  -0.027059   0.045335   0.031915
     17      -0.101896  -0.102657  -0.067313   0.036737  -0.031915  -0.010233
     18      -0.049579  -0.067313   0.002931   0.017875  -0.044212  -0.036187
     19       0.027059   0.036737   0.017875   0.025928   0.028793   0.023567
     20       0.044844   0.060890   0.001166   0.003992   0.088250   0.100612
     21      -0.060890  -0.080402  -0.001841  -0.006299  -0.100612  -0.101838
     22      -0.001166  -0.001841   0.015653  -0.000121  -0.048671  -0.066210
     23      -0.003992  -0.006299  -0.000121   0.015275   0.026516   0.036071
     24       0.001971   0.002947   0.000084   0.000173   0.005664   0.007886
     25      -0.002947  -0.004373  -0.000137  -0.000283  -0.007886  -0.010716
     26      -0.000084  -0.000137   0.000456  -0.000008  -0.002381  -0.003684
     27      -0.000173  -0.000283  -0.000008   0.000443   0.001067   0.001650
     28       0.000237   0.000352  -0.000065   0.000074   0.001676   0.002512
     29      -0.000352  -0.000518   0.000104  -0.000119  -0.002512  -0.003737
     30       0.000065   0.000104   0.000026   0.000022  -0.000024  -0.000039
     31      -0.000074  -0.000119   0.000022   0.000021  -0.000182  -0.000298
     32       0.000067   0.000110   0.000023  -0.000007   0.000121   0.000179
     33      -0.000086  -0.000140  -0.000031   0.000010  -0.000139  -0.000201
     34      -0.000018  -0.000031   0.000005   0.000002  -0.000065  -0.000103
     35       0.000006   0.000010   0.000002   0.000010   0.000035   0.000056
     36       0.524166  -0.490223  -0.009345  -0.032234   0.121664  -0.120163
     37       0.121305   0.007254  -0.119816   0.085436   0.524377  -0.253949
     38       0.120986   0.013885   0.119919  -0.083839   0.013459  -0.002447
     39       0.013666   0.013798  -0.009177   0.007593   0.122906   0.132112
     40       0.013334   0.014077   0.009377  -0.005531   0.005418   0.003852
     41       0.000343   0.000443  -0.000177   0.000060   0.002479   0.003320
     42       0.000351   0.000442  -0.000087   0.000198   0.002550   0.003321
     43       0.000043   0.000060  -0.000007   0.000010   0.000225   0.000315
                  6          7          8          9         10         11    
      0       0.291613  -0.222390   0.411728  -0.215931  -0.298664   0.194468
      1       0.193812  -0.147804   0.215931   0.093197  -0.215006   0.139996
      2      -0.032751   0.215563   0.298664  -0.215006  -0.048739   0.193634
      3       0.215563   0.085518  -0.194468   0.139996   0.193634   0.122564
      4       0.000000   0.000000   0.089056  -0.002713  -0.094598   0.066794
      5       0.000000   0.000000   0.002713   0.035316  -0.003441   0.002429
      6       1.000000   0.000000   0.094598  -0.003441  -0.084534   0.084693
      7       0.000000   1.000000  -0.066794   0.002429   0.084693  -0.024385
      8       0.094598  -0.066794   1.000000   0.000000   0.000000   0.000000
      9      -0.003441   0.002429   0.000000   1.000000   0.000000   0.000000
     10      -0.084534   0.084693   0.000000   0.000000   1.000000   0.000000
     11       0.084693  -0.024385   0.000000   0.000000   0.000000   1.000000
     12       0.008053   0.027317   0.045404   0.029547  -0.043115   0.032883
     13      -0.011156  -0.037843  -0.029547  -0.006438   0.032623  -0.024881
     14       0.249457  -0.000732   0.043115   0.032623  -0.031686   0.036306
     15      -0.000732   0.247191  -0.032883  -0.024881   0.036306  -0.011772
     16       0.044212  -0.028793   0.414851   0.417779   0.007851   0.027478
     17      -0.036187   0.023567  -0.417779  -0.327068  -0.010868  -0.038037
     18      -0.034240   0.032647  -0.007851  -0.010868   0.251052  -0.000715
     19       0.032647  -0.005372  -0.027478  -0.038037  -0.000715   0.248754
     20       0.048671  -0.026516   0.088524   0.098279  -0.045098   0.039721
     21      -0.066210   0.036071  -0.098279  -0.095048   0.059750  -0.052625
     22       0.003000   0.017449   0.045098   0.059750   0.007743   0.024148
     23       0.017449   0.025523  -0.039721  -0.052625   0.024148   0.013891
     24       0.002381  -0.001067   0.006091   0.008407  -0.002070   0.002128
     25      -0.003684   0.001650  -0.008407  -0.011301   0.003179  -0.003267
     26       0.000369   0.000498   0.002070   0.003179   0.000824   0.000804
     27       0.000498   0.001258  -0.002128  -0.003267   0.000804   0.000780
     28       0.000024   0.000182   0.000382   0.000503  -0.000226   0.000200
     29      -0.000039  -0.000298  -0.000503  -0.000640   0.000321  -0.000284
     30       0.000384  -0.000003   0.000226   0.000321  -0.000068   0.000128
     31      -0.000003   0.000363  -0.000200  -0.000284   0.000128  -0.000036
     32       0.000083  -0.000045   0.000589   0.000971   0.000000   0.000076
     33      -0.000103   0.000056  -0.000751  -0.001234  -0.000001  -0.000105
     34      -0.000028   0.000026  -0.000000  -0.000001   0.000115  -0.000000
     35       0.000026   0.000007  -0.000058  -0.000105  -0.000000   0.000107
     36       0.065360  -0.055816   0.121025  -0.123260  -0.069677   0.039592
     37      -0.352623   0.229613   0.013431  -0.003254  -0.014502   0.010014
     38       0.014426  -0.010412   0.524309  -0.235355   0.343068  -0.261596
     39      -0.051090   0.046644   0.005424   0.003509  -0.005154   0.003929
     40       0.005259  -0.003422   0.119650   0.132534   0.053385  -0.027360
     41      -0.000765  -0.000067   0.000365   0.000403  -0.000288   0.000128
     42       0.000044   0.001119   0.000370   0.000397  -0.000192   0.000275
     43       0.000014   0.000015   0.000089   0.000115  -0.000037   0.000036
                 12         13         14         15         16         17    
      0       0.089622  -0.099353   0.045670  -0.040223   0.089616  -0.101896
      1       0.099353  -0.095828   0.060454  -0.053243   0.101896  -0.102657
      2      -0.045670   0.060454   0.007896   0.024475   0.049579  -0.067313
      3       0.040223  -0.053243   0.024475   0.014131  -0.027059   0.036737
      4       0.412959  -0.416544  -0.008053  -0.027317   0.045335  -0.031915
      5       0.416544  -0.327381  -0.011156  -0.037843   0.031915  -0.010233
      6       0.008053  -0.011156   0.249457  -0.000732   0.044212  -0.036187
      7       0.027317  -0.037843  -0.000732   0.247191  -0.028793   0.023567
      8       0.045404  -0.029547   0.043115  -0.032883   0.414851  -0.417779
      9       0.029547  -0.006438   0.032623  -0.024881   0.417779  -0.327068
     10      -0.043115   0.032623  -0.031686   0.036306   0.007851  -0.010868
     11       0.032883  -0.024881   0.036306  -0.011772   0.027478  -0.038037
     12       1.000000   0.000000   0.000000   0.000000   0.089175  -0.002536
     13       0.000000   1.000000   0.000000   0.000000   0.002536   0.035386
     14       0.000000   0.000000   1.000000   0.000000   0.094705  -0.003215
     15       0.000000   0.000000   0.000000   1.000000  -0.066896   0.002271
     16       0.089175   0.002536   0.094705  -0.066896   1.000000   0.000000
     17      -0.002536   0.035386  -0.003215   0.002271   0.000000   1.000000
     18      -0.094705  -0.003215  -0.084595   0.084811   0.000000   0.000000
     19       0.066896   0.002271   0.084811  -0.024436   0.000000   0.000000
     20       0.410803   0.217407   0.297365  -0.193503   0.410042   0.201224
     21      -0.217407   0.090003  -0.215931   0.140511  -0.201224   0.111792
     22      -0.297365  -0.215931  -0.047473   0.192188   0.289021   0.194544
     23       0.193503   0.140511   0.192188   0.122811  -0.220662  -0.148531
     24       0.071087   0.082599   0.039474  -0.021496   0.077222   0.088705
     25      -0.082599  -0.086401  -0.054211   0.029521  -0.088705  -0.091011
     26      -0.039474  -0.054211   0.001127   0.014108   0.036789   0.050123
     27       0.021496   0.029521   0.014108   0.019352  -0.033012  -0.044977
     28       0.031484   0.043490   0.000208   0.003281   0.005079   0.005633
     29      -0.043490  -0.058696  -0.000330  -0.005212  -0.005633  -0.005618
     30      -0.000208  -0.000330   0.010389  -0.000025   0.003780   0.004650
     31      -0.003281  -0.005212  -0.000025   0.009997  -0.003122  -0.003841
     32       0.002402   0.003063   0.002100  -0.001250   0.017889   0.028071
     33      -0.002346  -0.002765  -0.002265   0.001348  -0.021027  -0.032496
     34      -0.001609  -0.002265  -0.001015   0.000924   0.000184   0.000330
     35       0.000958   0.001348   0.000924  -0.000012  -0.001760  -0.003153
     36       0.013542  -0.016705   0.004920  -0.004809   0.013551  -0.016999
     37       0.121686  -0.134004  -0.055327   0.028562   0.005409  -0.003802
     38       0.005416  -0.003522   0.005138  -0.003919   0.122216  -0.131622
     39       0.524687   0.231195  -0.345271   0.262781   0.013384   0.002400
     40       0.013729   0.003435   0.014801  -0.010216   0.524739   0.264301
     41       0.031297   0.038334  -0.013633  -0.002425   0.002867   0.002546
     42       0.032116   0.037672   0.000372   0.018080   0.002893   0.002451
     43       0.003829   0.005220   0.000283   0.000225   0.001200   0.001433
                 18         19         20         21         22         23    
      0      -0.049579   0.027059   0.044844  -0.060890  -0.001166  -0.003992
      1      -0.067313   0.036737   0.060890  -0.080402  -0.001841  -0.006299
      2       0.002931   0.017875   0.001166  -0.001841   0.015653  -0.000121
      3       0.017875   0.025928   0.003992  -0.006299  -0.000121   0.015275
      4      -0.044212   0.028793   0.088250  -0.100612  -0.048671   0.026516
      5      -0.036187   0.023567   0.100612  -0.101838  -0.066210   0.036071
      6      -0.034240   0.032647   0.048671  -0.066210   0.003000   0.017449
      7       0.032647  -0.005372  -0.026516   0.036071   0.017449   0.025523
      8      -0.007851  -0.027478   0.088524  -0.098279   0.045098  -0.039721
      9      -0.010868  -0.038037   0.098279  -0.095048   0.059750  -0.052625
     10       0.251052  -0.000715  -0.045098   0.059750   0.007743   0.024148
     11      -0.000715   0.248754   0.039721  -0.052625   0.024148   0.013891
     12      -0.094705   0.066896   0.410803  -0.217407  -0.297365   0.193503
     13      -0.003215   0.002271   0.217407   0.090003  -0.215931   0.140511
     14      -0.084595   0.084811   0.297365  -0.215931  -0.047473   0.192188
     15       0.084811  -0.024436  -0.193503   0.140511   0.192188   0.122811
     16       0.000000   0.000000   0.410042  -0.201224   0.289021  -0.220662
     17       0.000000   0.000000   0.201224   0.111792   0.194544  -0.148531
     18       1.000000   0.000000  -0.289021   0.194544  -0.032188   0.213337
     19       0.000000   1.000000   0.220662  -0.148531   0.213337   0.084359
     20      -0.289021   0.220662   1.000000   0.000000   0.000000   0.000000
     21       0.194544  -0.148531   0.000000   1.000000   0.000000   0.000000
     22      -0.032188   0.213337   0.000000   0.000000   1.000000   0.000000
     23       0.213337   0.084359   0.000000   0.000000   0.000000   1.000000
     24      -0.036789   0.033012   0.358760   0.378401   0.017268   0.017290
     25       0.050123  -0.044977  -0.378401  -0.329360  -0.024430  -0.024461
     26       0.009057   0.018654  -0.017268  -0.024430   0.204868  -0.001116
     27       0.018654   0.013106  -0.017290  -0.024461  -0.001116   0.204865
     28      -0.003780   0.003122   0.064324   0.073856  -0.032465   0.028819
     29       0.004650  -0.003841  -0.073856  -0.075826   0.043883  -0.038954
     30      -0.001809   0.002577   0.032465   0.043883   0.004714   0.017123
     31       0.002577  -0.000817  -0.028819  -0.038954   0.017123   0.008803
     32      -0.000246   0.002350   0.046246   0.062883   0.028270  -0.015185
     33       0.000330  -0.003153  -0.046297  -0.058232  -0.033177   0.017820
     34       0.005155   0.000028  -0.020813  -0.033177   0.000651   0.008011
     35       0.000028   0.004894   0.011179   0.017820   0.008011   0.011263
     36      -0.005575   0.002604   0.005344  -0.007247  -0.000139  -0.000475
     37      -0.005271   0.003433   0.013359  -0.014047  -0.009453   0.005584
     38       0.050517  -0.046189   0.013382  -0.013561   0.008948  -0.007411
     39      -0.014352   0.010356   0.120203  -0.014906  -0.119150   0.083223
     40       0.347810  -0.225648   0.124006  -0.006642   0.122313  -0.087198
     41      -0.002773   0.001142   0.034880   0.031984  -0.031129   0.007454
     42      -0.001843   0.002520   0.035331   0.030428  -0.015498   0.030542
     43      -0.000630   0.000563   0.011158   0.014144  -0.003333   0.003522
                 24         25         26         27         28         29    
      0       0.001971  -0.002947  -0.000084  -0.000173   0.000237  -0.000352
      1       0.002947  -0.004373  -0.000137  -0.000283   0.000352  -0.000518
      2       0.000084  -0.000137   0.000456  -0.000008  -0.000065   0.000104
      3       0.000173  -0.000283  -0.000008   0.000443   0.000074  -0.000119
      4       0.005664  -0.007886  -0.002381   0.001067   0.001676  -0.002512
      5       0.007886  -0.010716  -0.003684   0.001650   0.002512  -0.003737
      6       0.002381  -0.003684   0.000369   0.000498   0.000024  -0.000039
      7      -0.001067   0.001650   0.000498   0.001258   0.000182  -0.000298
      8       0.006091  -0.008407   0.002070  -0.002128   0.000382  -0.000503
      9       0.008407  -0.011301   0.003179  -0.003267   0.000503  -0.000640
     10      -0.002070   0.003179   0.000824   0.000804  -0.000226   0.000321
     11       0.002128  -0.003267   0.000804   0.000780   0.000200  -0.000284
     12       0.071087  -0.082599  -0.039474   0.021496   0.031484  -0.043490
     13       0.082599  -0.086401  -0.054211   0.029521   0.043490  -0.058696
     14       0.039474  -0.054211   0.001127   0.014108   0.000208  -0.000330
     15      -0.021496   0.029521   0.014108   0.019352   0.003281  -0.005212
     16       0.077222  -0.088705   0.036789  -0.033012   0.005079  -0.005633
     17       0.088705  -0.091011   0.050123  -0.044977   0.005633  -0.005618
     18      -0.036789   0.050123   0.009057   0.018654  -0.003780   0.004650
     19       0.033012  -0.044977   0.018654   0.013106   0.003122  -0.003841
     20       0.358760  -0.378401  -0.017268  -0.017290   0.064324  -0.073856
     21       0.378401  -0.329360  -0.024430  -0.024461   0.073856  -0.075826
     22       0.017268  -0.024430   0.204868  -0.001116  -0.032465   0.043883
     23       0.017290  -0.024461  -0.001116   0.204865   0.028819  -0.038954
     24       1.000000   0.000000   0.000000   0.000000   0.354031  -0.182418
     25       0.000000   1.000000   0.000000   0.000000   0.182418   0.076503
     26       0.000000   0.000000   1.000000   0.000000  -0.260811   0.179891
     27       0.000000   0.000000   0.000000   1.000000   0.199430  -0.137554
     28       0.354031   0.182418  -0.260811   0.199430   1.000000   0.000000
     29      -0.182418   0.076503   0.179891  -0.137554   0.000000   1.000000
     30       0.260811   0.179891  -0.054875   0.196667   0.000000   0.000000
     31      -0.199430  -0.137554   0.196667   0.051941   0.000000   0.000000
     32       0.378819   0.231103   0.335187  -0.220240   0.045078  -0.003759
     33      -0.154684   0.088309  -0.189561   0.124554   0.002769   0.014833
     34      -0.224351  -0.189561  -0.055929   0.180651  -0.041204   0.004025
     35       0.147413   0.124554   0.180651   0.100307   0.029489  -0.002880
     36       0.000253  -0.000354  -0.000009  -0.000021   0.000038  -0.000053
     37       0.001054  -0.001305  -0.000584   0.000311   0.000569  -0.000783
     38       0.001160  -0.001416   0.000567  -0.000513   0.000073  -0.000083
     39       0.042779  -0.034282  -0.036381   0.023092   0.057063  -0.068523
     40       0.052010  -0.039919   0.041762  -0.032711   0.003041  -0.002337
     41       0.120177   0.036153  -0.138831   0.027486   0.519269  -0.090385
     42       0.119912   0.027439  -0.070274   0.124733   0.519377  -0.147461
     43       0.125286   0.128482  -0.060363   0.053747   0.522036   0.480940
                 30         31         32         33         34         35    
      0       0.000065  -0.000074   0.000067  -0.000086  -0.000018   0.000006
      1       0.000104  -0.000119   0.000110  -0.000140  -0.000031   0.000010
      2       0.000026   0.000022   0.000023  -0.000031   0.000005   0.000002
      3       0.000022   0.000021  -0.000007   0.000010   0.000002   0.000010
      4      -0.000024  -0.000182   0.000121  -0.000139  -0.000065   0.000035
      5      -0.000039  -0.000298   0.000179  -0.000201  -0.000103   0.000056
      6       0.000384  -0.000003   0.000083  -0.000103  -0.000028   0.000026
      7      -0.000003   0.000363  -0.000045   0.000056   0.000026   0.000007
      8       0.000226  -0.000200   0.000589  -0.000751  -0.000000  -0.000058
      9       0.000321  -0.000284   0.000971  -0.001234  -0.000001  -0.000105
     10      -0.000068   0.000128   0.000000  -0.000001   0.000115  -0.000000
     11       0.000128  -0.000036   0.000076  -0.000105  -0.000000   0.000107
     12      -0.000208  -0.003281   0.002402  -0.002346  -0.001609   0.000958
     13      -0.000330  -0.005212   0.003063  -0.002765  -0.002265   0.001348
     14       0.010389  -0.000025   0.002100  -0.002265  -0.001015   0.000924
     15      -0.000025   0.009997  -0.001250   0.001348   0.000924  -0.000012
     16       0.003780  -0.003122   0.017889  -0.021027   0.000184  -0.001760
     17       0.004650  -0.003841   0.028071  -0.032496   0.000330  -0.003153
     18      -0.001809   0.002577  -0.000246   0.000330   0.005155   0.000028
     19       0.002577  -0.000817   0.002350  -0.003153   0.000028   0.004894
     20       0.032465  -0.028819   0.046246  -0.046297  -0.020813   0.011179
     21       0.043883  -0.038954   0.062883  -0.058232  -0.033177   0.017820
     22       0.004714   0.017123   0.028270  -0.033177   0.000651   0.008011
     23       0.017123   0.008803  -0.015185   0.017820   0.008011   0.011263
     24       0.260811  -0.199430   0.378819  -0.154684  -0.224351   0.147413
     25       0.179891  -0.137554   0.231103   0.088309  -0.189561   0.124554
     26      -0.054875   0.196667   0.335187  -0.189561  -0.055929   0.180651
     27       0.196667   0.051941  -0.220240   0.124554   0.180651   0.100307
     28       0.000000   0.000000   0.045078   0.002769  -0.041204   0.029489
     29       0.000000   0.000000  -0.003759   0.014833   0.004025  -0.002880
     30       1.000000   0.000000   0.055934   0.004025  -0.044781   0.042858
     31       0.000000   1.000000  -0.040031  -0.002880   0.042858  -0.015570
     32       0.055934  -0.040031   1.000000   0.000000   0.000000   0.000000
     33       0.004025  -0.002880   0.000000   1.000000   0.000000   0.000000
     34      -0.044781   0.042858   0.000000   0.000000   1.000000   0.000000
     35       0.042858  -0.015570   0.000000   0.000000   0.000000   1.000000
     36       0.000008  -0.000010   0.000014  -0.000015  -0.000003   0.000001
     37      -0.000130   0.000031   0.000029  -0.000027  -0.000015   0.000009
     38       0.000046  -0.000039   0.000215  -0.000231   0.000037  -0.000044
     39      -0.021609   0.009904   0.001419  -0.000916  -0.001064   0.000683
     40       0.002728  -0.002117   0.034697  -0.032802   0.011778  -0.010878
     41      -0.446006  -0.178280   0.009304  -0.000236  -0.009535   0.003201
     42       0.005303   0.466003   0.009146  -0.000638  -0.006128   0.007740
     43       0.092293  -0.022579   0.032248   0.016367  -0.023599   0.018208
                 36         37         38         39         40         41    
      0       0.524166   0.121305   0.120986   0.013666   0.013334   0.000343
      1      -0.490223   0.007254   0.013885   0.013798   0.014077   0.000443
      2      -0.009345  -0.119816   0.119919  -0.009177   0.009377  -0.000177
      3      -0.032234   0.085436  -0.083839   0.007593  -0.005531   0.000060
      4       0.121664   0.524377   0.013459   0.122906   0.005418   0.002479
      5      -0.120163  -0.253949  -0.002447   0.132112   0.003852   0.003320
      6       0.065360  -0.352623   0.014426  -0.051090   0.005259  -0.000765
      7      -0.055816   0.229613  -0.010412   0.046644  -0.003422  -0.000067
      8       0.121025   0.013431   0.524309   0.005424   0.119650   0.000365
      9      -0.123260  -0.003254  -0.235355   0.003509   0.132534   0.000403
     10      -0.069677  -0.014502   0.343068  -0.005154   0.053385  -0.000288
     11       0.039592   0.010014  -0.261596   0.003929  -0.027360   0.000128
     12       0.013542   0.121686   0.005416   0.524687   0.013729   0.031297
     13      -0.016705  -0.134004  -0.003522   0.231195   0.003435   0.038334
     14       0.004920  -0.055327   0.005138  -0.345271   0.014801  -0.013633
     15      -0.004809   0.028562  -0.003919   0.262781  -0.010216  -0.002425
     16       0.013551   0.005409   0.122216   0.013384   0.524739   0.002867
     17      -0.016999  -0.003802  -0.131622   0.002400   0.264301   0.002546
     18      -0.005575  -0.005271   0.050517  -0.014352   0.347810  -0.002773
     19       0.002604   0.003433  -0.046189   0.010356  -0.225648   0.001142
     20       0.005344   0.013359   0.013382   0.120203   0.124006   0.034880
     21      -0.007247  -0.014047  -0.013561  -0.014906  -0.006642   0.031984
     22      -0.000139  -0.009453   0.008948  -0.119150   0.122313  -0.031129
     23      -0.000475   0.005584  -0.007411   0.083223  -0.087198   0.007454
     24       0.000253   0.001054   0.001160   0.042779   0.052010   0.120177
     25      -0.000354  -0.001305  -0.001416  -0.034282  -0.039919   0.036153
     26      -0.000009  -0.000584   0.000567  -0.036381   0.041762  -0.138831
     27      -0.000021   0.000311  -0.000513   0.023092  -0.032711   0.027486
     28       0.000038   0.000569   0.000073   0.057063   0.003041   0.519269
     29      -0.000053  -0.000783  -0.000083  -0.068523  -0.002337  -0.090385
     30       0.000008  -0.000130   0.000046  -0.021609   0.002728  -0.446006
     31      -0.000010   0.000031  -0.000039   0.009904  -0.002117  -0.178280
     32       0.000014   0.000029   0.000215   0.001419   0.034697   0.009304
     33      -0.000015  -0.000027  -0.000231  -0.000916  -0.032802  -0.000236
     34      -0.000003  -0.000015   0.000037  -0.001064   0.011778  -0.009535
     35       0.000001   0.000009  -0.000044   0.000683  -0.010878   0.003201
     36       1.000000   0.063161   0.062945   0.002633   0.002547   0.000061
     37       0.063161   1.000000   0.002580   0.064522   0.000745   0.001084
     38       0.062945   0.002580   1.000000   0.000745   0.061592   0.000066
     39       0.002633   0.064522   0.000745   1.000000   0.002628   0.072921
     40       0.002547   0.000745   0.061592   0.002628   1.000000   0.001407
     41       0.000061   0.001084   0.000066   0.072921   0.001407   1.000000
     42       0.000062   0.001118   0.000067   0.075085   0.001408   0.191013
     43       0.000008   0.000085   0.000022   0.007897   0.001187   0.185691
                  42         43    
      0       0.000351   0.000043
      1       0.000442   0.000060
      2      -0.000087  -0.000007
      3       0.000198   0.000010
      4       0.002550   0.000225
      5       0.003321   0.000315
      6       0.000044   0.000014
      7       0.001119   0.000015
      8       0.000370   0.000089
      9       0.000397   0.000115
     10      -0.000192  -0.000037
     11       0.000275   0.000036
     12       0.032116   0.003829
     13       0.037672   0.005220
     14       0.000372   0.000283
     15       0.018080   0.000225
     16       0.002893   0.001200
     17       0.002451   0.001433
     18      -0.001843  -0.000630
     19       0.002520   0.000563
     20       0.035331   0.011158
     21       0.030428   0.014144
     22      -0.015498  -0.003333
     23       0.030542   0.003522
     24       0.119912   0.125286
     25       0.027439   0.128482
     26      -0.070274  -0.060363
     27       0.124733   0.053747
     28       0.519377   0.522036
     29      -0.147461   0.480940
     30       0.005303   0.092293
     31       0.466003  -0.022579
     32       0.009146   0.032248
     33      -0.000638   0.016367
     34      -0.006128  -0.023599
     35       0.007740   0.018208
     36       0.000062   0.000008
     37       0.001118   0.000085
     38       0.000067   0.000022
     39       0.075085   0.007897
     40       0.001408   0.001187
     41       0.191013   0.185691
     42       1.000000   0.185481
     43       0.185481   1.000000
---------------------
INITIAL GUESS: MOREAD
---------------------
Guess MOs are being read from file: 1.ges
Input Geometry matches current geometry (good)
Atom 0: N(Shells)= 2 and 7 - projection required
Input basis set needs projection
NBasis(read)= 151
NBasis(calc)= 44
Basis set overlap was calculated
Using GuessMode=FMatrix for the initial guess
C*T matrix was formed
Effective Fockian was calculated
Effective Fockian was diagonalized
Initial density was built
                      ------------------
                      INITIAL GUESS DONE (   0.0 sec)
                      ------------------

 InCore treatment chosen:
   Memory dedicated               ...    1024 MB
   Memory needed                  ...      0 MB
   Number of tiny    integrals    ...       0
   Number of small   integrals    ...       0
   Number of regular integrals    ...    1044

--------------
SCF ITERATIONS
--------------
ITER       Energy         Delta-E        Max-DP      RMS-DP      [F,P]     Damp
  0     -3.7165660591   0.000000000000 0.05818597  0.00413962  0.1269710 0.7000
  1     -3.7730937141  -0.056527654952 0.05165645  0.00374156  0.0929472 0.7000
                               ***Turning on DIIS***
  2     -3.8140120859  -0.040918371823 0.12044174  0.00925536  0.0728530 0.0000
  3     -3.9006525508  -0.086640464847 0.02801209  0.00193606  0.0319302 0.0000
  4     -3.9195196358  -0.018867085021 0.01161072  0.00071708  0.0106040 0.0000
  5     -3.9142542731   0.005265362715 0.00483819  0.00029993  0.0038029 0.0000
                      *** Initiating the SOSCF procedure ***
                           *** Shutting down DIIS ***
                      *** Re-Reading the Fockian *** 
                      *** Removing any level shift *** 
ITER      Energy       Delta-E        Grad      Rot      Max-DP    RMS-DP
  6     -3.91333064   0.0009236295  0.000762  0.000762  0.002054  0.000145
  7     -3.91400329  -0.0006726483  0.000281  0.000611  0.000877  0.000073
  8     -3.91400650  -0.0000032089  0.000112  0.000426  0.000552  0.000049
  9     -3.91400713  -0.0000006310  0.000030  0.000095  0.000126  0.000008
 10     -3.91400715  -0.0000000223  0.000014  0.000041  0.000029  0.000003
                 **** Energy Check signals convergence ****
              ***Rediagonalizing the Fockian in SOSCF/NRSCF***

               *****************************************************
               *                     SUCCESS                       *
               *           SCF CONVERGED AFTER  11 CYCLES          *
               *****************************************************


----------------
TOTAL SCF ENERGY
----------------

Total Energy       :           -3.91400716 Eh            -106.50555 eV

Components:
Nuclear Repulsion  :          205.93502726 Eh            5603.77698 eV
Electronic Energy  :         -209.84903442 Eh           -5710.28253 eV
One Electron Energy:         -383.89261413 Eh          -10446.24911 eV
Two Electron Energy:          174.04357971 Eh            4735.96658 eV


---------------
SCF CONVERGENCE
---------------

  Last Energy change         ...   -5.6161e-09  Tolerance :   1.0000e-08
  Last MAX-Density change    ...    2.2585e-05  Tolerance :   1.0000e-07
  Last RMS-Density change    ...    2.2427e-06  Tolerance :   5.0000e-09
  Last Orbital Gradient      ...    7.0769e-06  Tolerance :   1.0000e-05
  Last Orbital Rotation      ...    3.4526e-05  Tolerance :   1.0000e-05

             **** THE GBW FILE WAS UPDATED (1.gbw) ****
             **** DENSITY FILE WAS UPDATED (1.scfp) ****
             **** ENERGY FILE WAS UPDATED (1.en.tmp) ****
             **** THE GBW FILE WAS UPDATED (1.gbw) ****
             **** DENSITY FILE WAS UPDATED (1.scfp) ****
----------------
ORBITAL ENERGIES
----------------

  NO   OCC          E(Eh)            E(eV) 
   0   2.0000      -1.675073       -45.5810 
   1   2.0000      -1.579753       -42.9873 
   2   2.0000      -1.312670       -35.7196 
   3   2.0000      -1.237603       -33.6769 
   4   2.0000      -1.194018       -32.4909 
   5   2.0000      -0.985828       -26.8257 
   6   2.0000      -0.942647       -25.6507 
   7   2.0000      -0.903656       -24.5897 
   8   2.0000      -0.748395       -20.3649 
   9   2.0000      -0.682255       -18.5651 
  10   2.0000      -0.658370       -17.9152 
  11   2.0000      -0.645713       -17.5708 
  12   2.0000      -0.625037       -17.0081 
  13   2.0000      -0.580549       -15.7975 
  14   2.0000      -0.571917       -15.5626 
  15   2.0000      -0.533266       -14.5109 
  16   2.0000      -0.521793       -14.1987 
  17   2.0000      -0.479369       -13.0443 
  18   2.0000      -0.475415       -12.9367 
  19   2.0000      -0.466150       -12.6846 
  20   2.0000      -0.383032       -10.4228 
  21   2.0000      -0.350872        -9.5477 
  22   2.0000      -0.349342        -9.5061 
  23   0.0000      -0.021356        -0.5811 
  24   0.0000       0.015017         0.4086 
  25   0.0000       0.044975         1.2238 
  26   0.0000       0.082616         2.2481 
  27   0.0000       0.104066         2.8318 
  28   0.0000       0.109819         2.9883 
  29   0.0000       0.127967         3.4822 
  30   0.0000       0.135598         3.6898 
  31   0.0000       0.171430         4.6648 
  32   0.0000       0.190417         5.1815 
  33   0.0000       0.201883         5.4935 
  34   0.0000       0.240233         6.5371 
  35   0.0000       0.243920         6.6374 
  36   0.0000       0.251297         6.8381 
  37   0.0000       0.300326         8.1723 
  38   0.0000       0.320527         8.7220 
  39   0.0000       0.352149         9.5825 
  40   0.0000       0.408180        11.1071 
  41   0.0000       0.424637        11.5550 
  42   0.0000       0.449002        12.2180 
  43   0.0000       0.475209        12.9311 

                    ********************************
                    * MULLIKEN POPULATION ANALYSIS *
                    ********************************

-----------------------
MULLIKEN ATOMIC CHARGES
-----------------------
   0 C :   -0.056226
   1 C :   -0.071376
   2 C :   -0.069426
   3 C :   -0.064640
   4 C :   -0.037150
   5 C :    0.013036
   6 C :    0.470644
   7 C :   -0.127641
   8 O :   -0.709261
   9 H :    0.079344
  10 H :    0.076160
  11 H :    0.079607
  12 H :    0.076048
  13 H :    0.109300
  14 H :    0.073844
  15 H :    0.073496
  16 H :    0.084240
Sum of atomic charges:   -0.0000000

--------------------------------
MULLIKEN REDUCED ORBITAL CHARGES
--------------------------------
  0 C s       :     1.282400  s :     1.282400
      pz      :     0.897694  p :     2.773826
      px      :     0.929525
      py      :     0.946607
  1 C s       :     1.275359  s :     1.275359
      pz      :     0.897200  p :     2.796017
      px      :     0.930452
      py      :     0.968365
  2 C s       :     1.276830  s :     1.276830
      pz      :     0.902032  p :     2.792596
      px      :     0.927833
      py      :     0.962731
  3 C s       :     1.285182  s :     1.285182
      pz      :     0.904892  p :     2.779458
      px      :     0.923672
      py      :     0.950895
  4 C s       :     1.286540  s :     1.286540
      pz      :     0.902250  p :     2.750610
      px      :     0.920148
      py      :     0.928212
  5 C s       :     1.203698  s :     1.203698
      pz      :     0.837580  p :     2.783266
      px      :     0.949897
      py      :     0.995789
  6 C s       :     1.172330  s :     1.172330
      pz      :     0.910777  p :     2.357027
      px      :     0.765086
      py      :     0.681163
  7 C s       :     1.296465  s :     1.296465
      pz      :     0.968944  p :     2.831176
      px      :     0.923614
      py      :     0.938618
  8 O s       :     1.943906  s :     1.943906
      pz      :     1.802672  p :     4.765355
      px      :     1.446087
      py      :     1.516596
  9 H s       :     0.920656  s :     0.920656
 10 H s       :     0.923840  s :     0.923840
 11 H s       :     0.920393  s :     0.920393
 12 H s       :     0.923952  s :     0.923952
 13 H s       :     0.890700  s :     0.890700
 14 H s       :     0.926156  s :     0.926156
 15 H s       :     0.926504  s :     0.926504
 16 H s       :     0.915760  s :     0.915760


                     *******************************
                     * LOEWDIN POPULATION ANALYSIS *
                     *******************************

----------------------
LOEWDIN ATOMIC CHARGES
----------------------
   0 C :   -0.009577
   1 C :   -0.034928
   2 C :   -0.030809
   3 C :   -0.018552
   4 C :    0.010800
   5 C :    0.000314
   6 C :    0.401336
   7 C :   -0.027963
   8 O :   -0.612493
   9 H :    0.036935
  10 H :    0.034866
  11 H :    0.037302
  12 H :    0.035011
  13 H :    0.058476
  14 H :    0.039290
  15 H :    0.038899
  16 H :    0.041092

-------------------------------
LOEWDIN REDUCED ORBITAL CHARGES
-------------------------------
  0 C s       :     1.086812  s :     1.086812
      pz      :     0.956248  p :     2.922766
      px      :     0.989616
      py      :     0.976902
  1 C s       :     1.082779  s :     1.082779
      pz      :     0.982810  p :     2.952149
      px      :     0.976389
      py      :     0.992950
  2 C s       :     1.083391  s :     1.083391
      pz      :     0.988109  p :     2.947419
      px      :     0.974397
      py      :     0.984912
  3 C s       :     1.090102  s :     1.090102
      pz      :     0.985733  p :     2.928450
      px      :     0.969667
      py      :     0.973049
  4 C s       :     1.090069  s :     1.090069
      pz      :     0.982410  p :     2.899131
      px      :     0.963917
      py      :     0.952805
  5 C s       :     1.052178  s :     1.052178
      pz      :     0.918326  p :     2.947508
      px      :     1.006815
      py      :     1.022367
  6 C s       :     1.083008  s :     1.083008
      pz      :     0.977451  p :     2.515656
      px      :     0.823349
      py      :     0.714856
  7 C s       :     1.056287  s :     1.056287
      pz      :     1.008529  p :     2.971675
      px      :     0.976464
      py      :     0.986682
  8 O s       :     1.800453  s :     1.800453
      pz      :     1.811954  p :     4.812040
      px      :     1.475405
      py      :     1.524681
  9 H s       :     0.963065  s :     0.963065
 10 H s       :     0.965134  s :     0.965134
 11 H s       :     0.962698  s :     0.962698
 12 H s       :     0.964989  s :     0.964989
 13 H s       :     0.941524  s :     0.941524
 14 H s       :     0.960710  s :     0.960710
 15 H s       :     0.961101  s :     0.961101
 16 H s       :     0.958908  s :     0.958908


                      *****************************
                      * MAYER POPULATION ANALYSIS *
                      *****************************

  NA   - Mulliken gross atomic population
  ZA   - Total nuclear charge
  QA   - Mulliken gross atomic charge
  VA   - Mayer's total valence
  BVA  - Mayer's bonded valence
  FA   - Mayer's free valence

  ATOM       NA         ZA         QA         VA         BVA        FA
  0 C      4.0562     4.0000    -0.0562     3.8957     3.8957     0.0000
  1 C      4.0714     4.0000    -0.0714     3.8964     3.8964     0.0000
  2 C      4.0694     4.0000    -0.0694     3.8961     3.8961    -0.0000
  3 C      4.0646     4.0000    -0.0646     3.8939     3.8939     0.0000
  4 C      4.0371     4.0000    -0.0371     3.8866     3.8866    -0.0000
  5 C      3.9870     4.0000     0.0130     3.9212     3.9212     0.0000
  6 C      3.5294     4.0000     0.4706     3.7271     3.7271    -0.0000
  7 C      4.1276     4.0000    -0.1276     3.8876     3.8876    -0.0000
  8 O      6.7093     6.0000    -0.7093     1.7016     1.7016     0.0000
  9 H      0.9207     1.0000     0.0793     0.9937     0.9937    -0.0000
 10 H      0.9238     1.0000     0.0762     0.9942     0.9942     0.0000
 11 H      0.9204     1.0000     0.0796     0.9937     0.9937    -0.0000
 12 H      0.9240     1.0000     0.0760     0.9942     0.9942    -0.0000
 13 H      0.8907     1.0000     0.1093     0.9881     0.9881    -0.0000
 14 H      0.9262     1.0000     0.0738     0.9945     0.9945    -0.0000
 15 H      0.9265     1.0000     0.0735     0.9946     0.9946    -0.0000
 16 H      0.9158     1.0000     0.0842     0.9929     0.9929     0.0000

  Mayer bond orders larger than 0.100000
B(  0-C ,  1-C ) :   1.3856 B(  0-C ,  2-C ) :   1.3846 B(  0-C ,  5-C ) :   0.1069 
B(  0-C ,  9-H ) :   0.9461 B(  1-C ,  3-C ) :   1.4022 B(  1-C ,  4-C ) :   0.1061 
B(  1-C , 10-H ) :   0.9463 B(  2-C ,  3-C ) :   0.1104 B(  2-C ,  4-C ) :   1.4009 
B(  2-C , 11-H ) :   0.9459 B(  3-C ,  5-C ) :   1.3521 B(  3-C , 12-H ) :   0.9444 
B(  4-C ,  5-C ) :   1.3560 B(  4-C , 13-H ) :   0.9410 B(  5-C ,  6-C ) :   1.0312 
B(  6-C ,  7-C ) :   0.9887 B(  6-C ,  8-O ) :   1.6072 B(  7-C , 14-H ) :   0.9514 
B(  7-C , 15-H ) :   0.9517 B(  7-C , 16-H ) :   0.9665 

-------
TIMINGS
-------

Total SCF time: 0 days 0 hours 0 min 0 sec 

Total time                  ....       0.124 sec
Sum of individual times     ....       0.011 sec  (  8.9%)

Fock matrix formation       ....       0.004 sec  (  3.0%)
Diagonalization             ....       0.001 sec  (  0.8%)
Density matrix formation    ....       0.000 sec  (  0.1%)
Population analysis         ....       0.001 sec  (  0.6%)
Initial guess               ....       0.003 sec  (  2.4%)
Orbital Transformation      ....       0.000 sec  (  0.0%)
Orbital Orthonormalization  ....       0.000 sec  (  0.0%)
DIIS solution               ....       0.000 sec  (  0.3%)
SOSCF solution              ....       0.002 sec  (  1.7%)

-------------------------   --------------------
FINAL SINGLE POINT ENERGY        -3.914007159725
-------------------------   --------------------


                            ***************************************
                            *     ORCA property calculations      *
                            ***************************************

                                    ---------------------
                                    Active property flags
                                    ---------------------
   (+) Dipole Moment


------------------------------------------------------------------------------
                       ORCA ELECTRIC PROPERTIES CALCULATION
------------------------------------------------------------------------------

Dipole Moment Calculation                       ... on
Quadrupole Moment Calculation                   ... off
Polarizability Calculation                      ... off
GBWName                                         ... 1.gbw
Electron density file                           ... 1.scfp
The origin for moment calculation is the CENTER OF MASS  = ( 3.529795, -1.796365  4.644729)

-------------
DIPOLE MOMENT
-------------
                                X             Y             Z
Electronic contribution:     10.92181      -7.11129       8.08188
Nuclear contribution   :     -3.55407       2.68836       2.18801
                        -----------------------------------------
Total Dipole Moment    :      7.36775      -4.42293      10.26988
                        -----------------------------------------
Magnitude (a.u.)       :     13.39091
Magnitude (Debye)      :     34.03699



--------------------
Rotational spectrum 
--------------------
 
Rotational constants in cm-1:     0.124213     0.040879     0.030932 
Rotational constants in MHz :  3723.813959  1225.510122   927.328298 

 Dipole components along the rotational axes: 
x,y,z [a.u.] :     9.859168    -9.061639     0.004726 
x,y,z [Debye]:    25.060013   -23.032855     0.012013 

 

Timings for individual modules:

Sum of individual times         ...        0.179 sec (=   0.003 min)
STO integral calculation        ...        0.035 sec (=   0.001 min)  19.7 %
SCF iterations                  ...        0.143 sec (=   0.002 min)  80.3 %
                             ****ORCA TERMINATED NORMALLY****
TOTAL RUN TIME: 0 days 0 hours 0 minutes 0 seconds 259 msec
