
                                 *****************
                                 * O   R   C   A *
                                 *****************

           --- An Ab Initio, DFT and Semiempirical electronic structure package ---

                  #######################################################
                  #                        -***-                        #
                  #          Department of theory and spectroscopy      #
                  #               Directorship: Frank Neese             #
                  #        Max Planck Institute fuer Kohlenforschung    #
                  #                Kaiser Wilhelm Platz 1               #
                  #                 D-45470 Muelheim/Ruhr               #
                  #                      Germany                        #
                  #                                                     #
                  #                  All rights reserved                #
                  #                        -***-                        #
                  #######################################################


                         Program Version 4.2.1 -  RELEASE  -


 With contributions from (in alphabetic order):
   Daniel Aravena         : Magnetic Suceptibility
   Michael Atanasov       : Ab Initio Ligand Field Theory (pilot matlab implementation)
   Alexander A. Auer      : GIAO ZORA, VPT2
   Ute Becker             : Parallelization
   Giovanni Bistoni       : ED, misc. LED, open-shell LED, HFLD
   Martin Brehm           : Molecular dynamics
   Dmytro Bykov           : SCF Hessian
   Vijay G. Chilkuri      : MRCI spin determinant printing, contributions to CSF-ICE
   Dipayan Datta          : RHF DLPNO-CCSD density
   Achintya Kumar Dutta   : EOM-CC, STEOM-CC
   Dmitry Ganyushin       : Spin-Orbit,Spin-Spin,Magnetic field MRCI
   Miquel Garcia          : C-PCM Hessian, Gaussian charge scheme
   Yang Guo               : DLPNO-NEVPT2, CIM, IAO-localization
   Andreas Hansen         : Spin unrestricted coupled pair/coupled cluster methods
   Benjamin Helmich-Paris : CASSCF linear response (MC-RPA)
   Lee Huntington         : MR-EOM, pCC
   Robert Izsak           : Overlap fitted RIJCOSX, COSX-SCS-MP3, EOM
   Christian Kollmar      : KDIIS, OOCD, Brueckner-CCSD(T), CCSD density
   Simone Kossmann        : Meta GGA functionals, TD-DFT gradient, OOMP2, MP2 Hessian
   Martin Krupicka        : AUTO-CI
   Lucas Lang             : DCDCAS
   Dagmar Lenk            : GEPOL surface, SMD
   Dimitrios Liakos       : Extrapolation schemes; Compound Job, initial MDCI parallelization
   Dimitrios Manganas     : Further ROCIS development; embedding schemes
   Dimitrios Pantazis     : SARC Basis sets
   Taras Petrenko         : DFT Hessian,TD-DFT gradient, ASA, ECA, R-Raman, ABS, FL, XAS/XES, NRVS
   Peter Pinski           : DLPNO-MP2, DLPNO-MP2 Gradient
   Christoph Reimann      : Effective Core Potentials
   Marius Retegan         : Local ZFS, SOC
   Christoph Riplinger    : Optimizer, TS searches, QM/MM, DLPNO-CCSD(T), (RO)-DLPNO pert. Triples
   Tobias Risthaus        : Range-separated hybrids, TD-DFT gradient, RPA, STAB
   Michael Roemelt        : Original ROCIS implementation
   Masaaki Saitow         : Open-shell DLPNO-CCSD energy and density
   Barbara Sandhoefer     : DKH picture change effects
   Avijit Sen             : IP-ROCIS
   Kantharuban Sivalingam : CASSCF convergence, NEVPT2, FIC-MRCI
   Bernardo de Souza      : ESD, SOC TD-DFT
   Georgi Stoychev        : AutoAux, RI-MP2 NMR
   Willem Van den Heuvel  : Paramagnetic NMR
   Boris Wezisla          : Elementary symmetry handling
   Frank Wennmohs         : Technical directorship


 We gratefully acknowledge several colleagues who have allowed us to
 interface, adapt or use parts of their codes:
   Stefan Grimme, W. Hujo, H. Kruse,             : VdW corrections, initial TS optimization,
                  C. Bannwarth                     DFT functionals, gCP, sTDA/sTD-DF
   Ed Valeev, F. Pavosevic, A. Kumar             : LibInt (2-el integral package), F12 methods
   Garnet Chan, S. Sharma, J. Yang, R. Olivares  : DMRG
   Ulf Ekstrom                                   : XCFun DFT Library
   Mihaly Kallay                                 : mrcc  (arbitrary order and MRCC methods)
   Andreas Klamt, Michael Diedenhofen            : otool_cosmo (COSMO solvation model)
   Jiri Pittner, Ondrej Demel                    : Mk-CCSD
   Frank Weinhold                                : gennbo (NPA and NBO analysis)
   Christopher J. Cramer and Donald G. Truhlar   : smd solvation model
   Lars Goerigk                                  : TD-DFT with DH, B97 family of functionals
   V. Asgeirsson, H. Jonsson                     : NEB implementation
   FAccTs GmbH                                   : IRC, NEB, NEB-TS, Multilevel, MM, QM/MM, CI optimization
   S Lehtola, MJT Oliveira, MAL Marques          : LibXC Library


 Your calculation uses the libint2 library for the computation of 2-el integrals
 For citations please refer to: http://libint.valeyev.net

 Your ORCA version has been built with support for libXC version: 4.2.3
 For citations please refer to: https://tddft.org/programs/libxc/

 This ORCA versions uses:
   CBLAS   interface :  Fast vector & matrix operations
   LAPACKE interface :  Fast linear algebra routines
   SCALAPACK package :  Parallel linear algebra routines


leaving
----- Orbital basis set information -----
Your calculation utilizes the basis: def2-SVP
   F. Weigend and R. Ahlrichs, Phys. Chem. Chem. Phys. 7, 3297 (2005).

================================================================================
                                        WARNINGS
                       Please study these warnings very carefully!
================================================================================


WARNING: Direct SCF is incompatible with Method<>HF and Method<>DFT
  ===> : conventional SCF is chosen

WARNING: The NDO methods need Guess=HUECKEL or Guess=HCORE or Guess=MOREAD
  ===> : Guess is set to Hueckel

WARNING: The NDO methods need %rel::SOCType==1
  ===> : %rel::SOCType is set to 1

WARNING: The NDO methods cannot have frozencore=1
  ===> : %method FrozenCore=0 end
INFO   : Checking CIS options ...

WARNING: CIS/ROCIS methods need fully converged wavefunctions
  ===> : Setting SCFConvForced true
         You can overwrite this default with %scf ConvForced false 


INFO   : the flag for use of LIBINT has been found!

================================================================================
                                       INPUT FILE
================================================================================
NAME = orca.inp
|  1> %output Print[P_OVERLAP] 1 Print[P_MOs] 1 end
|  2> %cis nroots 10 triplets false end
|  3> #!6-31G*
|  4> !zindo/s
|  5> #!sto-3g
|  6> *xyz 0 1
|  7> O         -2.72878        2.04053        4.17249
|  8> C         -1.81269        2.97859        3.70014
|  9> C         -1.03941        2.73827        2.62946
| 10> N         -1.13559        1.54066        1.96346
| 11> C         -2.02819        0.59292        2.40179
| 12> C         -2.79961        0.83726        3.47289
| 13> H         -1.81621        3.88047        4.29148
| 14> H         -0.31954        3.44871        2.24091
| 15> H         -2.06235       -0.33266        1.83962
| 16> H         -3.52857        0.16519        3.89721
| 17> H         -0.55283        1.35780        1.15563
| 18> *
| 19> 
| 20> 
| 21>                          ****END OF INPUT****
================================================================================

                       ****************************
                       * Single Point Calculation *
                       ****************************

---------------------------------
CARTESIAN COORDINATES (ANGSTROEM)
---------------------------------
  O     -2.728780    2.040530    4.172490
  C     -1.812690    2.978590    3.700140
  C     -1.039410    2.738270    2.629460
  N     -1.135590    1.540660    1.963460
  C     -2.028190    0.592920    2.401790
  C     -2.799610    0.837260    3.472890
  H     -1.816210    3.880470    4.291480
  H     -0.319540    3.448710    2.240910
  H     -2.062350   -0.332660    1.839620
  H     -3.528570    0.165190    3.897210
  H     -0.552830    1.357800    1.155630

----------------------------
CARTESIAN COORDINATES (A.U.)
----------------------------
  NO LB      ZA    FRAG     MASS         X           Y           Z
   0 O     6.0000    0    15.999   -5.156647    3.856043    7.884863
   1 C     4.0000    0    12.011   -3.425488    5.628719    6.992251
   2 C     4.0000    0    12.011   -1.964200    5.174580    4.968959
   3 N     5.0000    0    14.007   -2.145954    2.911425    3.710402
   4 C     4.0000    0    12.011   -3.832724    1.120456    4.538725
   5 C     4.0000    0    12.011   -5.290496    1.582192    6.562811
   6 H     1.0000    0     1.008   -3.432140    7.333026    8.109722
   7 H     1.0000    0     1.008   -0.603843    6.517117    4.234706
   8 H     1.0000    0     1.008   -3.897277   -0.628636    3.476378
   9 H     1.0000    0     1.008   -6.668031    0.312164    7.364660
  10 H     1.0000    0     1.008   -1.044697    2.565870    2.183824

--------------------------------
INTERNAL COORDINATES (ANGSTROEM)
--------------------------------
 O      0   0   0     0.000000000000     0.00000000     0.00000000
 C      1   0   0     1.393661355638     0.00000000     0.00000000
 C      2   1   0     1.342412501134   121.90204172     0.00000000
 N      3   2   1     1.373708959169   120.16036921     0.00000000
 C      4   3   2     1.373709960836   119.48967044     0.00000000
 C      5   4   3     1.342403092219   120.16005790     0.00000000
 H      2   1   3     1.078463221626   112.01788873   180.00071098
 H      3   2   1     1.083470771641   123.46070404   180.00018414
 H      5   4   3     1.083466820396   116.37864802   180.00179325
 H      6   5   4     1.078474955157   126.08050697   179.99994527
 H      4   3   2     1.012737036994   120.25507944   180.00764596

---------------------------
INTERNAL COORDINATES (A.U.)
---------------------------
 O      0   0   0     0.000000000000     0.00000000     0.00000000
 C      1   0   0     2.633638285586     0.00000000     0.00000000
 C      2   1   0     2.536791985895   121.90204172     0.00000000
 N      3   2   1     2.595933720543   120.16036921     0.00000000
 C      4   3   2     2.595935613420   119.48967044     0.00000000
 C      5   4   3     2.536774205624   120.16005790     0.00000000
 H      2   1   3     2.038000134380   112.01788873   180.00071098
 H      3   2   1     2.047463032510   123.46070404   180.00018414
 H      5   4   3     2.047455565740   116.37864802   180.00179325
 H      6   5   4     2.038022307539   126.08050697   179.99994527
 H      4   3   2     1.913795645598   120.25507944   180.00764596

----------------------------
SLATER BASIS SET DIM=  29
----------------------------
  0 O     2 shells
 l=0 nsto= 1
    2       2.275000000000        1.000000000000
 l=1 nsto= 1
    2       2.275000000000        1.000000000000
  1 C     2 shells
 l=0 nsto= 1
    2       1.625000000000        1.000000000000
 l=1 nsto= 1
    2       1.625000000000        1.000000000000
  2 C     2 shells
 l=0 nsto= 1
    2       1.625000000000        1.000000000000
 l=1 nsto= 1
    2       1.625000000000        1.000000000000
  3 N     2 shells
 l=0 nsto= 1
    2       1.950000000000        1.000000000000
 l=1 nsto= 1
    2       1.950000000000        1.000000000000
  4 C     2 shells
 l=0 nsto= 1
    2       1.625000000000        1.000000000000
 l=1 nsto= 1
    2       1.625000000000        1.000000000000
  5 C     2 shells
 l=0 nsto= 1
    2       1.625000000000        1.000000000000
 l=1 nsto= 1
    2       1.625000000000        1.000000000000
  6 H     1 shells
 l=0 nsto= 1
    1       1.200000000000        1.000000000000
  7 H     1 shells
 l=0 nsto= 1
    1       1.200000000000        1.000000000000
  8 H     1 shells
 l=0 nsto= 1
    1       1.200000000000        1.000000000000
  9 H     1 shells
 l=0 nsto= 1
    1       1.200000000000        1.000000000000
 10 H     1 shells
 l=0 nsto= 1
    1       1.200000000000        1.000000000000
------------------------------------------------------------------------------
                           ORCA NDO INTEGRAL CALCULATION
------------------------------------------------------------------------------

--------------
NDO PARAMETERS
--------------

Gamma integral treatment              ... Mataga-Nishimoto
Nuclear repulsuion treatment          ... Direct (ZA*ZB/RAB)
Interaction factors:
s-s (sigma) =    1.0000
s-p (sigma) =    1.0000
s-d (sigma) =    1.0000
p-p (sigma) =    1.2670  p-p(pi) =    0.5850
p-d (sigma) =    1.0000  p-d(pi) =    1.0000
d-d (sigma) =    1.0000  d-d(pi) =    1.0000 d-d (delta) =    1.0000

fGamma parameter for Mataga-Nishimoto gamma integrals:    1.2000

--------------------------
Parameters for Element H :
--------------------------
 One-electron parameters (in eV)
  U(s)  =   -13.060000 Beta(s) =    12.000000 Neff(s) =     1.000000
 One-center electron repulsion parameters (in eV)
  G(s,s)=    12.850000
--------------------------
Parameters for Element C :
--------------------------
 One-electron parameters (in eV)
  U(s)  =   -50.870766 Beta(s) =    17.000000 Neff(s) =     2.000000
  U(p)  =   -41.599980 Beta(p) =    17.000000 Neff(p) =     2.000000 
 One-center electron repulsion parameters (in eV)
  G(s,s)=    11.110000
  G(s,p)=    11.110000 G(p,p)  =    11.110000
 Slater-Condon parameters (in eV)
 F2(p,p)=     4.5098 G1(s,p)=    6.8977
--------------------------
Parameters for Element N :
--------------------------
 One-electron parameters (in eV)
  U(s)  =   -69.250864 Beta(s) =    26.000000 Neff(s) =     2.000000
  U(p)  =   -58.070401 Beta(p) =    26.000000 Neff(p) =     3.000000 
 One-center electron repulsion parameters (in eV)
  G(s,s)=    12.010000
  G(s,p)=    12.010000 G(p,p)  =    12.010000
 Slater-Condon parameters (in eV)
 F2(p,p)=     6.4594 G1(s,p)=    8.9583
--------------------------
Parameters for Element O :
--------------------------
 One-electron parameters (in eV)
  U(s)  =   -90.023218 Beta(s) =    34.000000 Neff(s) =     2.000000
  U(p)  =   -76.684970 Beta(p) =    34.000000 Neff(p) =     4.000000 
 One-center electron repulsion parameters (in eV)
  G(s,s)=    13.000000
  G(s,p)=    13.000000 G(p,p)  =    13.000000
 Slater-Condon parameters (in eV)
 F2(p,p)=     6.9027 G1(s,p)=   11.8152

 Number of atoms                    ....   11
 Number of basis functions          ....   29

 Overlap integrals                  .... done
 One electron matrix                .... done
 Nuclear repulsion                  .... done
 Integral list                      .... done
 Electron-electron repulsion        .... done
-------------------------------------------------------------------------------
                                 ORCA SCF
-------------------------------------------------------------------------------

------------
SCF SETTINGS
------------
Hamiltonian:
 ZDO-Hamiltonian        Method          .... INDO


General Settings:
 Integral files         IntName         .... orca
 Hartree-Fock type      HFTyp           .... RHF
 Total Charge           Charge          ....    0
 Multiplicity           Mult            ....    1
 Number of Electrons    NEL             ....   32
 Basis Dimension        Dim             ....   29
 Nuclear Repulsion      ENuc            ....    118.9203378877 Eh

Convergence Acceleration:
 DIIS                   CNVDIIS         .... on
   Start iteration      DIISMaxIt       ....    12
   Startup error        DIISStart       ....  0.200000
   # of expansion vecs  DIISMaxEq       ....     5
   Bias factor          DIISBfac        ....   1.050
   Max. coefficient     DIISMaxC        ....  10.000
 Newton-Raphson         CNVNR           .... off
 SOSCF                  CNVSOSCF        .... on
   Start iteration      SOSCFMaxIt      ....   150
   Startup grad/error   SOSCFStart      ....  0.003300
 Level Shifting         CNVShift        .... on
   Level shift para.    LevelShift      ....    0.2500
   Turn off err/grad.   ShiftErr        ....    0.0010
 Zerner damping         CNVZerner       .... off
 Static damping         CNVDamp         .... on
   Fraction old density DampFac         ....    0.7000
   Max. Damping (<1)    DampMax         ....    0.9800
   Min. Damping (>=0)   DampMin         ....    0.0000
   Turn off err/grad.   DampErr         ....    0.1000
 Fernandez-Rico         CNVRico         .... off

SCF Procedure:
 Maximum # iterations   MaxIter         ....   125
 SCF integral mode      SCFMode         .... Conventional
 Integral Buffer length BufferLength    .... 1048576
 Integral index format  IndFormat       ....     0
 Integral value format  ValFormat       ....     0
 Integral Storage       Thresh          ....  1.000e-08 Eh

Convergence Tolerance:
 Convergence Check Mode ConvCheckMode   .... Total+1el-Energy
 Convergence forced     ConvForced      .... 1
 Energy Change          TolE            ....  1.000e-06 Eh
 1-El. energy change                    ....  1.000e-03 Eh
 Orbital Gradient       TolG            ....  5.000e-05
 Orbital Rotation angle TolX            ....  5.000e-05
 DIIS Error             TolErr          ....  1.000e-06


Diagonalization of the overlap matrix:
Smallest eigenvalue                        ... 1.689e-01
Time for diagonalization                   ...    0.000 sec
Threshold for overlap eigenvalues          ... 1.000e-08
Number of eigenvalues below threshold      ... 0
Time for construction of square roots      ...    0.000 sec
Total time needed                          ...    0.000 sec

--------------
OVERLAP MATRIX
--------------
                  0          1          2          3          4          5    
      0       1.000000   0.000000   0.000000   0.000000   0.287516   0.126802
      1       0.000000   1.000000   0.000000   0.000000  -0.086885   0.099529
      2       0.000000   0.000000   1.000000   0.000000   0.168507   0.098512
      3       0.000000   0.000000   0.000000   1.000000   0.172548   0.100874
      4       0.287516  -0.086885   0.168507   0.172548   1.000000   0.000000
      5       0.126802   0.099529   0.098512   0.100874   0.000000   1.000000
      6      -0.245924   0.098512  -0.040734  -0.195639   0.000000   0.000000
      7      -0.251822   0.100874  -0.195639  -0.050008   0.000000   0.000000
      8       0.043006  -0.031321   0.034292   0.014163   0.435581  -0.344461
      9       0.042475  -0.021886   0.039605   0.016358   0.344461  -0.109094
     10      -0.046504   0.039605  -0.029073  -0.017909  -0.248781   0.272981
     11      -0.019207   0.016358  -0.017909   0.006892   0.077316  -0.084837
     12       0.009110  -0.009791   0.007061  -0.002216   0.065901  -0.069624
     13       0.011114  -0.010895   0.009657  -0.003030   0.058754  -0.048927
     14      -0.008016   0.009657  -0.004470   0.002185  -0.022907   0.028590
     15       0.002515  -0.003030   0.002185   0.001809   0.048647  -0.060716
     16       0.043006  -0.035942   0.014221  -0.029384   0.049853  -0.032140
     17       0.048742  -0.033348   0.018848  -0.038944   0.032140  -0.006404
     18      -0.019285   0.018848   0.006831   0.015409   0.005335  -0.004011
     19       0.039848  -0.038944   0.015409  -0.017550   0.059057  -0.044407
     20       0.287512  -0.128683  -0.013028  -0.221328   0.094828  -0.011772
     21       0.187804   0.038897  -0.011281  -0.191641   0.011772   0.036452
     22       0.019014  -0.011281   0.149178  -0.019402   0.051125  -0.007599
     23       0.323012  -0.191641  -0.019402  -0.179292   0.110927  -0.016488
     24       0.074299   0.004393   0.033695   0.067935   0.525375   0.269778
     25       0.004774  -0.002962   0.003694   0.002159   0.121943  -0.100950
     26       0.004774  -0.003577   0.001022  -0.003639   0.005955  -0.003949
     27       0.074298  -0.010164  -0.029530  -0.069242   0.015727   0.001248
     28       0.002072  -0.001815   0.001309  -0.000411   0.016700  -0.017249
                  6          7          8          9         10         11    
      0      -0.245924  -0.251822   0.043006   0.042475  -0.046504  -0.019207
      1       0.098512   0.100874  -0.031321  -0.021886   0.039605   0.016358
      2      -0.040734  -0.195639   0.034292   0.039605  -0.029073  -0.017909
      3      -0.195639  -0.050008   0.014163   0.016358  -0.017909   0.006892
      4       0.000000   0.000000   0.435581   0.344461  -0.248781   0.077316
      5       0.000000   0.000000  -0.344461  -0.109094   0.272981  -0.084837
      6       1.000000   0.000000   0.248781   0.272981   0.071719   0.061272
      7       0.000000   1.000000  -0.077316  -0.084837   0.061272   0.249833
      8       0.248781  -0.077316   1.000000   0.000000   0.000000   0.000000
      9       0.272981  -0.084837   0.000000   1.000000   0.000000   0.000000
     10       0.071719   0.061272   0.000000   0.000000   1.000000   0.000000
     11       0.061272   0.249833   0.000000   0.000000   0.000000   1.000000
     12       0.027145  -0.057647   0.353422  -0.200000  -0.028883  -0.359642
     13       0.028590  -0.060716   0.161705   0.077697  -0.017797  -0.221607
     14       0.013256   0.023672   0.023352  -0.017797   0.198364  -0.032003
     15       0.023672  -0.025868   0.290779  -0.221607  -0.032003  -0.197562
     16      -0.005335  -0.059057   0.094096  -0.011689  -0.050764  -0.110143
     17      -0.004011  -0.044407   0.011689   0.036108  -0.007547  -0.016375
     18       0.017098  -0.007371   0.050764  -0.007547   0.005068  -0.071118
     19      -0.007371  -0.063832   0.110143  -0.016375  -0.071118  -0.116458
     20      -0.051125  -0.110927   0.049854   0.020879  -0.043574  -0.047060
     21      -0.007599  -0.016488  -0.020879   0.007565   0.021285   0.022988
     22       0.005200  -0.071605   0.043574   0.021285  -0.026657  -0.047974
     23      -0.071605  -0.117160   0.047060   0.022988  -0.047974  -0.034048
     24      -0.001606   0.411451   0.117872   0.110344  -0.051573   0.075833
     25       0.103297   0.032523   0.522563  -0.175907   0.325905   0.321636
     26      -0.000530  -0.007028   0.014846  -0.004685  -0.006067  -0.018214
     27      -0.010865  -0.017814   0.006055   0.002741  -0.005382  -0.005563
     28       0.008540  -0.010987   0.134847  -0.115232   0.038044  -0.107933
                 12         13         14         15         16         17    
      0       0.009110   0.011114  -0.008016   0.002515   0.043006   0.048742
      1      -0.009791  -0.010895   0.009657  -0.003030  -0.035942  -0.033348
      2       0.007061   0.009657  -0.004470   0.002185   0.014221   0.018848
      3      -0.002216  -0.003030   0.002185   0.001809  -0.029384  -0.038944
      4       0.065901   0.058754  -0.022907   0.048647   0.049853   0.032140
      5      -0.069624  -0.048927   0.028590  -0.060716  -0.032140  -0.006404
      6       0.027145   0.028590   0.013256   0.023672  -0.005335  -0.004011
      7      -0.057647  -0.060716   0.023672  -0.025868  -0.059057  -0.044407
      8       0.353422   0.161705   0.023352   0.290779   0.094096   0.011689
      9      -0.200000   0.077697  -0.017797  -0.221607  -0.011689   0.036108
     10      -0.028883  -0.017797   0.198364  -0.032003  -0.050764  -0.007547
     11      -0.359642  -0.221607  -0.032003  -0.197562  -0.110143  -0.016375
     12       1.000000   0.000000   0.000000   0.000000   0.353421  -0.131630
     13       0.000000   1.000000   0.000000   0.000000   0.106426   0.147552
     14       0.000000   0.000000   1.000000   0.000000  -0.216723   0.108705
     15       0.000000   0.000000   0.000000   1.000000  -0.230110   0.115420
     16       0.353421   0.106426  -0.216723  -0.230110   1.000000   0.000000
     17      -0.131630   0.147552   0.108705   0.115420   0.000000   1.000000
     18       0.268047   0.108705  -0.020430  -0.235038   0.000000   0.000000
     19       0.284606   0.115420  -0.235038  -0.048624   0.000000   0.000000
     20       0.065902   0.051067  -0.056297  -0.023797   0.435586   0.344600
     21      -0.060515  -0.030993   0.061070   0.025815  -0.344600  -0.109393
     22       0.066713   0.061070  -0.042921  -0.028459   0.248186   0.272437
     23       0.028200   0.025815  -0.028459   0.012374  -0.078610  -0.086292
     24       0.007844   0.006555  -0.001916   0.006588   0.006055   0.004086
     25       0.093804   0.013878   0.040820   0.095444   0.014846  -0.000954
     26       0.093805  -0.006195  -0.046358  -0.093707   0.522565  -0.254512
     27       0.007844   0.005445  -0.006738  -0.003873   0.117871   0.099282
     28       0.504332  -0.347376   0.250593  -0.078632   0.134847  -0.097431
                 18         19         20         21         22         23    
      0      -0.019285   0.039848   0.287512   0.187804   0.019014   0.323012
      1       0.018848  -0.038944  -0.128683   0.038897  -0.011281  -0.191641
      2       0.006831   0.015409  -0.013028  -0.011281   0.149178  -0.019402
      3       0.015409  -0.017550  -0.221328  -0.191641  -0.019402  -0.179292
      4       0.005335   0.059057   0.094828   0.011772   0.051125   0.110927
      5      -0.004011  -0.044407  -0.011772   0.036452  -0.007599  -0.016488
      6       0.017098  -0.007371  -0.051125  -0.007599   0.005200  -0.071605
      7      -0.007371  -0.063832  -0.110927  -0.016488  -0.071605  -0.117160
      8       0.050764   0.110143   0.049854  -0.020879   0.043574   0.047060
      9      -0.007547  -0.016375   0.020879   0.007565   0.021285   0.022988
     10       0.005068  -0.071118  -0.043574   0.021285  -0.026657  -0.047974
     11      -0.071118  -0.116458  -0.047060   0.022988  -0.047974  -0.034048
     12       0.268047   0.284606   0.065902  -0.060515   0.066713   0.028200
     13       0.108705   0.115420   0.051067  -0.030993   0.061070   0.025815
     14      -0.020430  -0.235038  -0.056297   0.061070  -0.042921  -0.028459
     15      -0.235038  -0.048624  -0.023797   0.025815  -0.028459   0.012374
     16       0.000000   0.000000   0.435586  -0.344600   0.248186  -0.078610
     17       0.000000   0.000000   0.344600  -0.109393   0.272437  -0.086292
     18       1.000000   0.000000  -0.248186   0.272437   0.072667   0.062148
     19       0.000000   1.000000   0.078610  -0.086292   0.062148   0.249195
     20      -0.248186   0.078610   1.000000   0.000000   0.000000   0.000000
     21       0.272437  -0.086292   0.000000   1.000000   0.000000   0.000000
     22       0.072667   0.062148   0.000000   0.000000   1.000000   0.000000
     23       0.062148   0.249195   0.000000   0.000000   0.000000   1.000000
     24       0.000458   0.007108   0.015727   0.005183   0.006227   0.019269
     25       0.010134   0.016938   0.005955  -0.002615   0.005264   0.005543
     26      -0.015465  -0.419038   0.121944  -0.112992   0.051005  -0.080937
     27      -0.099612  -0.028397   0.525368   0.193577  -0.332556  -0.306602
     28       0.115351   0.059802   0.016700  -0.015708   0.015231   0.003529
                  24         25         26         27         28    
      0       0.074299   0.004774   0.004774   0.074298   0.002072
      1       0.004393  -0.002962  -0.003577  -0.010164  -0.001815
      2       0.033695   0.003694   0.001022  -0.029530   0.001309
      3       0.067935   0.002159  -0.003639  -0.069242  -0.000411
      4       0.525375   0.121943   0.005955   0.015727   0.016700
      5       0.269778  -0.100950  -0.003949   0.001248  -0.017249
      6      -0.001606   0.103297  -0.000530  -0.010865   0.008540
      7       0.411451   0.032523  -0.007028  -0.017814  -0.010987
      8       0.117872   0.522563   0.014846   0.006055   0.134847
      9       0.110344  -0.175907  -0.004685   0.002741  -0.115232
     10      -0.051573   0.325905  -0.006067  -0.005382   0.038044
     11       0.075833   0.321636  -0.018214  -0.005563  -0.107933
     12       0.007844   0.093804   0.093805   0.007844   0.504332
     13       0.006555   0.013878  -0.006195   0.005445  -0.347376
     14      -0.001916   0.040820  -0.046358  -0.006738   0.250593
     15       0.006588   0.095444  -0.093707  -0.003873  -0.078632
     16       0.006055   0.014846   0.522565   0.117871   0.134847
     17       0.004086  -0.000954  -0.254512   0.099282  -0.097431
     18       0.000458   0.010134  -0.015465  -0.099612   0.115351
     19       0.007108   0.016938  -0.419038  -0.028397   0.059802
     20       0.015727   0.005955   0.121944   0.525368   0.016700
     21       0.005183  -0.002615  -0.112992   0.193577  -0.015708
     22       0.006227   0.005264   0.051005  -0.332556   0.015231
     23       0.019269   0.005543  -0.080937  -0.306602   0.003529
     24       1.000000   0.052984   0.000825   0.003520   0.002879
     25       0.052984   1.000000   0.003074   0.000825   0.074475
     26       0.000825   0.003074   1.000000   0.052983   0.074475
     27       0.003520   0.000825   0.052983   1.000000   0.002879
     28       0.002879   0.074475   0.074475   0.002879   1.000000
-------------------------------
INITIAL GUESS: EXTENDED HUECKEL
-------------------------------
EHT matrix was read from disk
EHT matrix was diagonalized
Initial density was built
                      ------------------
                      INITIAL GUESS DONE
                      ------------------

 InCore treatment chosen:
   Memory dedicated               ...    1024 MB
   Memory needed                  ...      0 MB
   Number of tiny    integrals    ...       0
   Number of small   integrals    ...       0
   Number of regular integrals    ...     471

--------------
SCF ITERATIONS
--------------
ITER       Energy         Delta-E        Max-DP      RMS-DP      [F,P]     Damp
  0     -7.8584513260   0.000000000000 0.05552732  0.00320938  0.1888622 0.7000
  1     -7.8767860270  -0.018334701016 0.04895534  0.00296125  0.1443081 0.7000
                               ***Turning on DIIS***
  2     -7.8912686447  -0.014482617711 0.03800326  0.00234887  0.1067539 0.7000
  3     -7.8701507128   0.021117931923 0.10492606  0.00667128  0.0789549 0.0000
  4     -7.9269040229  -0.056753310141 0.01294774  0.00118454  0.0115998 0.0000
  5     -7.9339109594  -0.007006936508 0.00470919  0.00056468  0.0039357 0.0000
                      *** Initiating the SOSCF procedure ***
                           *** Shutting down DIIS ***
                      *** Re-Reading the Fockian *** 
                      *** Removing any level shift *** 
ITER      Energy       Delta-E        Grad      Rot      Max-DP    RMS-DP
  6     -7.93389367   0.0000172929  0.001387  0.001387  0.002030  0.000275
  7     -7.93271988   0.0011737849  0.000749  0.002206  0.001161  0.000172
  8     -7.93272644  -0.0000065612  0.000259  0.001658  0.001148  0.000150
  9     -7.93272826  -0.0000018133  0.000082  0.000164  0.000197  0.000024
                 **** Energy Check signals convergence ****
              ***Rediagonalizing the Fockian in SOSCF/NRSCF***

               *****************************************************
               *                     SUCCESS                       *
               *           SCF CONVERGED AFTER  10 CYCLES          *
               *****************************************************


----------------
TOTAL SCF ENERGY
----------------

Total Energy       :           -7.93272835 Eh            -215.86051 eV

Components:
Nuclear Repulsion  :          118.92033789 Eh            3235.98691 eV
Electronic Energy  :         -126.85306624 Eh           -3451.84742 eV
One Electron Energy:         -228.14022897 Eh           -6208.01124 eV
Two Electron Energy:          101.28716272 Eh            2756.16382 eV


---------------
SCF CONVERGENCE
---------------

  Last Energy change         ...   -9.8631e-08  Tolerance :   1.0000e-06
  Last MAX-Density change    ...    4.4100e-05  Tolerance :   1.0000e-05
  Last RMS-Density change    ...    6.0713e-06  Tolerance :   1.0000e-06
  Last Orbital Gradient      ...    2.1583e-05  Tolerance :   5.0000e-05
  Last Orbital Rotation      ...    3.9143e-05  Tolerance :   5.0000e-05

             **** THE GBW FILE WAS UPDATED (orca.gbw) ****
             **** DENSITY FILE WAS UPDATED (orca.scfp) ****
             **** ENERGY FILE WAS UPDATED (orca.en.tmp) ****
             **** THE GBW FILE WAS UPDATED (orca.gbw) ****
             **** DENSITY FILE WAS UPDATED (orca.scfp) ****
----------------
ORBITAL ENERGIES
----------------

  NO   OCC          E(Eh)            E(eV) 
   0   2.0000      -1.770099       -48.1668 
   1   2.0000      -1.487375       -40.4735 
   2   2.0000      -1.216647       -33.1067 
   3   2.0000      -1.050252       -28.5788 
   4   2.0000      -0.999471       -27.1970 
   5   2.0000      -0.890752       -24.2386 
   6   2.0000      -0.780310       -21.2333 
   7   2.0000      -0.675770       -18.3886 
   8   2.0000      -0.611972       -16.6526 
   9   2.0000      -0.580733       -15.8025 
  10   2.0000      -0.575774       -15.6676 
  11   2.0000      -0.539575       -14.6826 
  12   2.0000      -0.490310       -13.3420 
  13   2.0000      -0.473513       -12.8849 
  14   2.0000      -0.364385        -9.9154 
  15   2.0000      -0.276017        -7.5108 
  16   0.0000       0.034068         0.9270 
  17   0.0000       0.063488         1.7276 
  18   0.0000       0.110324         3.0021 
  19   0.0000       0.128652         3.5008 
  20   0.0000       0.165765         4.5107 
  21   0.0000       0.202833         5.5194 
  22   0.0000       0.212204         5.7744 
  23   0.0000       0.283324         7.7096 
  24   0.0000       0.328969         8.9517 
  25   0.0000       0.338093         9.2000 
  26   0.0000       0.435902        11.8615 
  27   0.0000       0.437770        11.9123 
  28   0.0000       0.490512        13.3475 
------------------
MOLECULAR ORBITALS
------------------
                      0         1         2         3         4         5   
                  -1.77010  -1.48738  -1.21665  -1.05025  -0.99947  -0.89075
                   2.00000   2.00000   2.00000   2.00000   2.00000   2.00000
                  --------  --------  --------  --------  --------  --------
  0O   1s        -0.505555 -0.542670  0.000002 -0.326625  0.000002 -0.128231
  0O   1pz        0.133681  0.074208 -0.019528 -0.022422  0.044615 -0.170663
  0O   1px       -0.096417 -0.053525 -0.084806  0.016173  0.193750  0.123085
  0O   1py        0.030250  0.016790 -0.184004 -0.005069  0.420383 -0.038613
  1C   1s        -0.325871 -0.146098 -0.401890  0.272547  0.298161 -0.116213
  1C   1pz        0.035400 -0.119937  0.067236 -0.162523  0.179943 -0.157452
  1C   1px        0.061329  0.146877 -0.070672  0.199715 -0.151379 -0.002255
  1C   1py        0.165749  0.082499 -0.025063  0.113040  0.001492 -0.245932
  2C   1s        -0.303148  0.242795 -0.434322  0.255879 -0.258617 -0.030353
  2C   1pz       -0.020391 -0.121744 -0.060537  0.206641  0.158091  0.060796
  2C   1px        0.087871  0.029790  0.021466 -0.075998 -0.104134 -0.191033
  2C   1py        0.128251 -0.132905 -0.054008  0.179399  0.053718 -0.253508
  3N   1s        -0.392711  0.547318 -0.000008 -0.330777  0.000003 -0.046903
  3N   1pz       -0.095345  0.016332 -0.024746  0.161049 -0.034643  0.370198
  3N   1px        0.068756 -0.011763 -0.107484 -0.116173 -0.150433 -0.267022
  3N   1py       -0.021571  0.003687 -0.233204  0.036451 -0.326400  0.083778
  4C   1s        -0.303149  0.242801  0.434322  0.255877  0.258613 -0.030352
  4C   1pz       -0.049285 -0.098831  0.051777  0.177794 -0.154195  0.118915
  4C   1px       -0.037617  0.129294 -0.059541 -0.201268  0.121087  0.061400
  4C   1py       -0.144019  0.082991 -0.028594 -0.092403 -0.016948  0.294187
  5C   1s        -0.325871 -0.146089  0.401896  0.272537 -0.298165 -0.116219
  5C   1pz        0.001099 -0.143782 -0.075996 -0.195105 -0.188470 -0.111720
  5C   1px       -0.087651  0.043327  0.032631  0.058219  0.114327  0.196375
  5C   1py       -0.157490 -0.142174 -0.057474 -0.193965 -0.081877  0.185029
  6H   1s        -0.078220 -0.062471 -0.185973  0.143811  0.207070 -0.237756
  7H   1s        -0.072667  0.100818 -0.209962  0.123873 -0.184416 -0.217602
  8H   1s        -0.072668  0.100822  0.209962  0.123872  0.184419 -0.217601
  9H   1s        -0.078219 -0.062469  0.185973  0.143801 -0.207070 -0.237760
 10H   1s        -0.121253  0.236399 -0.000005 -0.267064  0.000004 -0.322706
                      6         7         8         9        10        11   
                  -0.78031  -0.67577  -0.61197  -0.58073  -0.57577  -0.53957
                   2.00000   2.00000   2.00000   2.00000   2.00000   2.00000
                  --------  --------  --------  --------  --------  --------
  0O   1s         0.000000  0.235014  0.193131 -0.000036 -0.000002  0.000000
  0O   1pz       -0.045477  0.047335  0.407715 -0.407141  0.008546  0.032709
  0O   1px       -0.197501 -0.034154 -0.294149 -0.481204  0.037059  0.142013
  0O   1py       -0.428522  0.010719  0.092294  0.264994  0.080390  0.308133
  1C   1s         0.067817 -0.230893 -0.058531  0.000019  0.078095 -0.075446
  1C   1pz       -0.185863 -0.091443  0.144991 -0.196658 -0.266190 -0.088876
  1C   1px        0.256141 -0.023694 -0.003254 -0.232475  0.088633 -0.082296
  1C   1py        0.179651 -0.183462  0.216927  0.127985 -0.247917 -0.285961
  2C   1s        -0.005107  0.219615  0.034752 -0.000012  0.066131  0.076602
  2C   1pz        0.267007 -0.110869 -0.180177 -0.171460  0.226825  0.056672
  2C   1px       -0.087762  0.201847  0.067090 -0.202769 -0.290605  0.113471
  2C   1py        0.250740  0.196274 -0.154754  0.111674 -0.179325  0.293092
  3N   1s         0.000001 -0.182904  0.056706  0.000017  0.000004  0.000003
  3N   1pz       -0.043615  0.067589  0.382828 -0.229327  0.013078 -0.035314
  3N   1px       -0.189416 -0.048773 -0.276238 -0.270976  0.056724 -0.153393
  3N   1py       -0.410977  0.015305  0.086691  0.149230  0.123080 -0.332812
  4C   1s         0.005105  0.219610  0.034757 -0.000015 -0.066132 -0.076603
  4C   1pz       -0.225618 -0.159016 -0.155367 -0.171477 -0.276985  0.004278
  4C   1px        0.267517 -0.007214  0.174767 -0.202784  0.072780  0.151243
  4C   1py        0.139274 -0.257340  0.078899  0.111628 -0.293328  0.281249
  5C   1s        -0.067816 -0.230894 -0.058529  0.000016 -0.078092  0.075447
  5C   1pz        0.234079 -0.056038  0.104943 -0.196643  0.225393  0.031065
  5C   1px       -0.046742  0.130034 -0.177103 -0.232463 -0.265899 -0.168797
  5C   1py        0.274683  0.150092 -0.160301  0.128029 -0.136701 -0.258832
  6H   1s         0.073014 -0.284781  0.185482 -0.000027 -0.264700 -0.303200
  7H   1s         0.007506  0.352679  0.011256 -0.000012 -0.313037  0.268708
  8H   1s        -0.007506  0.352682  0.011245 -0.000002  0.313031 -0.268711
  9H   1s        -0.073010 -0.284770  0.185461 -0.000014  0.264723  0.303209
 10H   1s         0.000001 -0.135233 -0.362663  0.000055 -0.000011 -0.000004
                     12        13        14        15        16        17   
                  -0.49031  -0.47351  -0.36439  -0.27602   0.03407   0.06349
                   2.00000   2.00000   2.00000   2.00000   0.00000   0.00000
                  --------  --------  --------  --------  --------  --------
  0O   1s        -0.000079 -0.270786  0.000000 -0.000003  0.000000 -0.000003
  0O   1pz        0.355954 -0.518633  0.000002  0.223722 -0.000003  0.108851
  0O   1px        0.421117  0.373895  0.000002  0.264497 -0.000002  0.128686
  0O   1py       -0.231865 -0.117285  0.000002 -0.145647  0.000004 -0.070863
  1C   1s         0.000015  0.034306 -0.000001  0.000002 -0.000003  0.000010
  1C   1pz        0.019444  0.239056  0.294643 -0.258865  0.300643 -0.266738
  1C   1px        0.022879 -0.195106  0.348350 -0.306054  0.355443 -0.315356
  1C   1py       -0.012633  0.012885 -0.191830  0.168536 -0.195735  0.173658
  2C   1s        -0.000013 -0.024084  0.000004  0.000003 -0.000002 -0.000009
  2C   1pz       -0.170147 -0.216255  0.300641 -0.183338 -0.294650  0.291969
  2C   1px       -0.201074  0.168541  0.355434 -0.216746 -0.348358  0.345184
  2C   1py        0.110755 -0.026299 -0.195735  0.119352  0.191835 -0.190078
  3N   1s         0.000036 -0.000996 -0.000000 -0.000030 -0.000000  0.000027
  3N   1pz       -0.411078  0.142548  0.000008  0.321141  0.000002 -0.172533
  3N   1px       -0.485980 -0.102621  0.000011  0.379633  0.000003 -0.203956
  3N   1py        0.267610  0.032168 -0.000000 -0.209051 -0.000002  0.112312
  4C   1s        -0.000013 -0.024082 -0.000003  0.000003  0.000002 -0.000009
  4C   1pz       -0.170154 -0.221180 -0.300645 -0.183328  0.294646  0.291977
  4C   1px       -0.201096  0.147122 -0.355448 -0.216734  0.348357  0.345193
  4C   1py        0.110716 -0.072760  0.195716  0.119348 -0.191815 -0.190082
  5C   1s         0.000015  0.034310 -0.000000  0.000001  0.000001  0.000009
  5C   1pz        0.019443  0.248013 -0.294653 -0.258859 -0.300639 -0.266746
  5C   1px        0.022891 -0.156180 -0.348365 -0.306049 -0.355441 -0.315368
  5C   1py       -0.012589  0.097335  0.191820  0.168522  0.195718  0.173654
  6H   1s         0.000028  0.155539 -0.000001  0.000001  0.000002 -0.000009
  7H   1s         0.000037  0.161133 -0.000005  0.000001  0.000002  0.000004
  8H   1s         0.000037  0.161126  0.000004  0.000001 -0.000002  0.000004
  9H   1s         0.000028  0.155537  0.000001  0.000001  0.000000 -0.000008
 10H   1s        -0.000035 -0.161092  0.000000  0.000022  0.000000 -0.000027
                     18        19        20        21        22        23   
                   0.11032   0.12865   0.16576   0.20283   0.21220   0.28332
                   0.00000   0.00000   0.00000   0.00000   0.00000   0.00000
                  --------  --------  --------  --------  --------  --------
  0O   1s         0.142254 -0.000000  0.202506 -0.036489 -0.000004  0.278783
  0O   1pz       -0.159016  0.018391 -0.170430  0.071530 -0.017780 -0.270871
  0O   1px        0.114690  0.079875  0.122923 -0.051590 -0.077221  0.195358
  0O   1py       -0.035992  0.173304 -0.038566  0.016182 -0.167544 -0.061307
  1C   1s        -0.364263 -0.390814 -0.287564 -0.048047  0.248336  0.000047
  1C   1pz        0.040660  0.056864 -0.155323 -0.081479  0.182000  0.046290
  1C   1px       -0.004392 -0.051886  0.141043  0.003950 -0.080754  0.217360
  1C   1py        0.054511 -0.006873  0.017559 -0.117965  0.132896  0.465815
  2C   1s         0.389009  0.393463 -0.213113 -0.129951  0.226168 -0.025360
  2C   1pz        0.025884  0.071096  0.209514 -0.017203 -0.181741  0.009122
  2C   1px       -0.034054 -0.023454 -0.120209 -0.127858  0.200390 -0.069158
  2C   1py       -0.022114  0.066616  0.103528 -0.258634  0.084756 -0.111580
  3N   1s        -0.263084 -0.000013  0.368909 -0.392394  0.000015 -0.088129
  3N   1pz       -0.066101 -0.018802 -0.001335  0.184258 -0.017756  0.092964
  3N   1px        0.047644 -0.081644  0.000999 -0.132961 -0.077076 -0.067065
  3N   1py       -0.014941 -0.177147 -0.000325  0.041720 -0.167245  0.021043
  4C   1s         0.389026 -0.393436 -0.213132 -0.129972 -0.226160 -0.025361
  4C   1pz        0.031970 -0.060113  0.197310  0.038206  0.209108  0.033851
  4C   1px       -0.007646  0.071181 -0.173209  0.112729 -0.081509  0.038172
  4C   1py        0.035193  0.036927 -0.011464  0.263388  0.173175  0.121316
  5C   1s        -0.364284  0.390808 -0.287551 -0.048062 -0.248323  0.000034
  5C   1pz        0.030807 -0.061147 -0.166790 -0.059849 -0.162049 -0.052730
  5C   1px       -0.047176  0.033230  0.091270  0.097972  0.167374 -0.212714
  5C   1py       -0.038326 -0.033581 -0.090449  0.086004  0.055049 -0.467304
  6H   1s         0.243307  0.257171  0.266259  0.183584 -0.324330 -0.303062
  7H   1s        -0.266451 -0.269706  0.213842  0.304440 -0.331733  0.072334
  8H   1s        -0.266461  0.269684  0.213856  0.304465  0.331708  0.072348
  9H   1s         0.243322 -0.257172  0.266252  0.183612  0.324316 -0.303072
 10H   1s         0.146853  0.000007 -0.246979  0.532789 -0.000021  0.150912
                     24        25        26        27        28   
                   0.32897   0.33809   0.43590   0.43777   0.49051
                   0.00000   0.00000   0.00000   0.00000   0.00000
                  --------  --------  --------  --------  --------
  0O   1s        -0.073570  0.000010  0.123413 -0.000013 -0.000002
  0O   1pz        0.068653  0.012483 -0.091851  0.042672 -0.031483
  0O   1px       -0.049514  0.054260  0.066280  0.185276 -0.136734
  0O   1py        0.015539  0.117712 -0.020727  0.402010 -0.296670
  1C   1s        -0.026364 -0.095424  0.091506 -0.096311 -0.020283
  1C   1pz        0.153208  0.258931 -0.333754 -0.071865  0.253020
  1C   1px       -0.113209 -0.031454  0.261678  0.235443 -0.280204
  1C   1py        0.029742  0.340594 -0.037447  0.317172 -0.120200
  2C   1s         0.121030  0.114398 -0.061673 -0.122688 -0.010976
  2C   1pz        0.074782  0.184698 -0.345098  0.065792  0.302762
  2C   1px       -0.239253 -0.276247  0.183906  0.105808 -0.088076
  2C   1py       -0.319594 -0.217954 -0.196101  0.293194  0.305095
  3N   1s        -0.097683  0.000003 -0.146112  0.000022  0.000001
  3N   1pz       -0.425490 -0.013185 -0.254018  0.038402  0.041910
  3N   1px        0.306902 -0.057336  0.183241  0.166587  0.182017
  3N   1py       -0.096298 -0.124376 -0.057433  0.361511  0.394921
  4C   1s         0.121024 -0.114405 -0.061639  0.122706  0.010975
  4C   1pz        0.147950 -0.241189 -0.319439 -0.005173 -0.251312
  4C   1px        0.078584  0.030912  0.295412  0.156958  0.311523
  4C   1py        0.369990 -0.314350  0.045808  0.277105  0.179719
  5C   1s        -0.026360  0.095428  0.091539  0.096282  0.020285
  5C   1pz        0.154268 -0.197611 -0.341994  0.144475 -0.291610
  5C   1px       -0.108538  0.297790  0.225742  0.079405  0.112603
  5C   1py        0.039853  0.237263 -0.115365  0.366130 -0.243440
  6H   1s        -0.059331 -0.259585  0.117923 -0.126210 -0.023947
  7H   1s         0.227778  0.224750 -0.069679 -0.135007 -0.011660
  8H   1s         0.227765 -0.224763 -0.069642  0.135027  0.011659
  9H   1s        -0.059314  0.259568  0.117962  0.126168  0.023949
 10H   1s        -0.383901  0.000014 -0.203971  0.000030 -0.000000



                    ********************************
                    * MULLIKEN POPULATION ANALYSIS *
                    ********************************

-----------------------
MULLIKEN ATOMIC CHARGES
-----------------------
   0 O :   -0.488957
   1 C :    0.091040
   2 C :    0.058043
   3 N :   -0.409999
   4 C :    0.058047
   5 C :    0.091041
   6 H :    0.101923
   7 H :    0.087616
   8 H :    0.087617
   9 H :    0.101919
  10 H :    0.221712
Sum of atomic charges:   -0.0000000

--------------------------------
MULLIKEN REDUCED ORBITAL CHARGES
--------------------------------
  0 O s       :     1.817035  s :     1.817035
      pz      :     1.672922  p :     4.671922
      px      :     1.675942
      py      :     1.323058
  1 C s       :     1.215961  s :     1.215961
      pz      :     0.927367  p :     2.692998
      px      :     0.917126
      py      :     0.848505
  2 C s       :     1.218869  s :     1.218869
      pz      :     0.914210  p :     2.723088
      px      :     0.950169
      py      :     0.858709
  3 N s       :     1.423190  s :     1.423190
      pz      :     1.339872  p :     3.986809
      px      :     1.452167
      py      :     1.194770
  4 C s       :     1.218869  s :     1.218869
      pz      :     0.921994  p :     2.723084
      px      :     0.925783
      py      :     0.875307
  5 C s       :     1.215964  s :     1.215964
      pz      :     0.908475  p :     2.692996
      px      :     0.976301
      py      :     0.808220
  6 H s       :     0.898077  s :     0.898077
  7 H s       :     0.912384  s :     0.912384
  8 H s       :     0.912383  s :     0.912383
  9 H s       :     0.898081  s :     0.898081
 10 H s       :     0.778288  s :     0.778288


                     *******************************
                     * LOEWDIN POPULATION ANALYSIS *
                     *******************************

----------------------
LOEWDIN ATOMIC CHARGES
----------------------
   0 O :   -0.365464
   1 C :    0.071204
   2 C :    0.046729
   3 N :   -0.232075
   4 C :    0.046732
   5 C :    0.071205
   6 H :    0.056564
   7 H :    0.046084
   8 H :    0.046085
   9 H :    0.056562
  10 H :    0.156374

-------------------------------
LOEWDIN REDUCED ORBITAL CHARGES
-------------------------------
  0 O s       :     1.678121  s :     1.678121
      pz      :     1.677119  p :     4.687344
      px      :     1.678389
      py      :     1.331835
  1 C s       :     1.080086  s :     1.080086
      pz      :     0.992908  p :     2.848710
      px      :     0.963191
      py      :     0.892611
  2 C s       :     1.066095  s :     1.066095
      pz      :     0.980228  p :     2.887177
      px      :     0.991440
      py      :     0.915509
  3 N s       :     1.204125  s :     1.204125
      pz      :     1.347255  p :     4.027949
      px      :     1.458827
      py      :     1.221867
  4 C s       :     1.066092  s :     1.066092
      pz      :     0.985494  p :     2.887176
      px      :     0.974945
      py      :     0.926736
  5 C s       :     1.080088  s :     1.080088
      pz      :     0.975231  p :     2.848707
      px      :     1.018563
      py      :     0.854913
  6 H s       :     0.943436  s :     0.943436
  7 H s       :     0.953916  s :     0.953916
  8 H s       :     0.953915  s :     0.953915
  9 H s       :     0.943438  s :     0.943438
 10 H s       :     0.843626  s :     0.843626


                      *****************************
                      * MAYER POPULATION ANALYSIS *
                      *****************************

  NA   - Mulliken gross atomic population
  ZA   - Total nuclear charge
  QA   - Mulliken gross atomic charge
  VA   - Mayer's total valence
  BVA  - Mayer's bonded valence
  FA   - Mayer's free valence

  ATOM       NA         ZA         QA         VA         BVA        FA
  0 O      6.4890     6.0000    -0.4890     1.9557     1.9557    -0.0000
  1 C      3.9090     4.0000     0.0910     3.8141     3.8141    -0.0000
  2 C      3.9420     4.0000     0.0580     3.8751     3.8751    -0.0000
  3 N      5.4100     5.0000    -0.4100     3.1002     3.1002     0.0000
  4 C      3.9420     4.0000     0.0580     3.8751     3.8751    -0.0000
  5 C      3.9090     4.0000     0.0910     3.8141     3.8141    -0.0000
  6 H      0.8981     1.0000     0.1019     0.9896     0.9896     0.0000
  7 H      0.9124     1.0000     0.0876     0.9923     0.9923    -0.0000
  8 H      0.9124     1.0000     0.0876     0.9923     0.9923    -0.0000
  9 H      0.8981     1.0000     0.1019     0.9896     0.9896    -0.0000
 10 H      0.7783     1.0000     0.2217     0.9508     0.9508     0.0000

  Mayer bond orders larger than 0.100000
B(  0-O ,  1-C ) :   0.9267 B(  0-O ,  5-C ) :   0.9267 B(  1-C ,  2-C ) :   1.8295 
B(  1-C ,  6-H ) :   0.9428 B(  2-C ,  3-N ) :   1.0089 B(  2-C ,  7-H ) :   0.9475 
B(  3-N ,  4-C ) :   1.0089 B(  3-N , 10-H ) :   0.9120 B(  4-C ,  5-C ) :   1.8295 
B(  4-C ,  8-H ) :   0.9475 B(  5-C ,  9-H ) :   0.9428 

-------
TIMINGS
-------

Total SCF time: 0 days 0 hours 0 min 0 sec 

Total time                  ....       0.108 sec
Sum of individual times     ....       0.005 sec  (  4.9%)

Fock matrix formation       ....       0.003 sec  (  3.0%)
Diagonalization             ....       0.001 sec  (  0.6%)
Density matrix formation    ....       0.000 sec  (  0.0%)
Population analysis         ....       0.000 sec  (  0.4%)
Initial guess               ....       0.000 sec  (  0.1%)
Orbital Transformation      ....       0.000 sec  (  0.0%)
Orbital Orthonormalization  ....       0.000 sec  (  0.0%)
DIIS solution               ....       0.000 sec  (  0.3%)
SOSCF solution              ....       0.000 sec  (  0.4%)
------------------------------------------------------------------------------
                         ORCA CIS CALCULATION
------------------------------------------------------------------------------

Input orbitals are from        ... orca.gbw
CI-vector output               ... orca.cis
Tamm-Dancoff approximation     ... operative
CIS-Integral strategy          ... AO-integrals
Integral handling              ... AO integral Conventional
Reference state                ... RHF
Generation of triplets         ... off
Follow IRoot                   ... off
Number of operators            ... 1
Orbital ranges used for CIS calculation:
 Operator 0:  Orbitals   0... 15  to  16... 28
XAS localization array:
 Operator 0:  Orbitals  -1... -1
-------------------
XC-INTEGRATION GRID
-------------------

General Integration Accuracy     IntAcc      ...  3.670
Radial Grid Type                 RadialGrid  ... Gauss-Chebyshev
Angular Grid (max. acc.)         AngularGrid ... Lebedev-50
Angular grid pruning method      GridPruning ... 3 (G Style)
Weight generation scheme         WeightScheme... Becke
Basis function cutoff            BFCut       ...    1.0000e-10
Integration weight cutoff        WCut        ...    1.0000e-14
Grids for H and He will be reduced by one unit

# of grid points (after initial pruning)     ...   6440 (   0.0 sec)
# of grid points (after weights+screening)   ...   6109 (   0.0 sec)
nearest neighbour list constructed           ...    0.0 sec
Grid point re-assignment to atoms done       ...    0.0 sec
Grid point division into batches done        ...    0.0 sec
Reduced shell lists constructed in    0.0 sec

Total number of grid points                  ...     6109
Total number of batches                      ...      100
Average number of points per batch           ...       61
Average number of grid points per atom       ...      555
Average number of shells per batch           ...    16.72 (98.37%)
Average number of basis functions per batch  ...    28.49 (98.22%)
Average number of large shells per batch     ...    15.50 (92.72%)
Average number of large basis fcns per batch ...    26.53 (93.15%)
Maximum spatial batch extension              ...  21.37, 16.71, 23.87 au
Average spatial batch extension              ...   6.22,  5.04,  6.04 au



------------------------
DAVIDSON-DIAGONALIZATION
------------------------

Dimension of the eigenvalue problem            ...    208
Number of roots to be determined               ...     10
Maximum size of the expansion space            ...    100
Maximum number of iterations                   ...    100
Convergence tolerance for the residual         ...    1.000e-06
Convergence tolerance for the energies         ...    1.000e-06
Orthogonality tolerance                        ...    1.000e-14
Level Shift                                    ...    0.000e+00
Constructing the preconditioner                ... o.k.
Building the initial guess                     ... o.k.
Number of trial vectors determined             ...    100


                       ****Iteration    0****

   Memory handling for direct AO based CIS:
   Memory per vector needed      ...     1 MB
   Memory needed                 ...     0 MB
   Memory available              ...   512 MB
   Number of vectors per batch   ...   512
   Number of batches             ...     1
   Time for densities:     0.000
   Time for J+K (Conventional):     0.003
   Time for Sigma-Completion:     0.001
   Size of expansion space: 30
   Lowest Energy          :     0.145324471364
   Maximum Energy change  :     0.295601457490 (vector 9)
   Maximum residual norm  :     0.023680790392

                       ****Iteration    1****
   Time for densities:     0.000
   Time for J+K (Conventional):     0.002
   Time for Sigma-Completion:     0.000
   Size of expansion space: 40
   Lowest Energy          :     0.136824606166
   Maximum Energy change  :     0.029114890382 (vector 5)
   Maximum residual norm  :     0.000346222181

                       ****Iteration    2****
   Time for densities:     0.000
   Time for J+K (Conventional):     0.002
   Time for Sigma-Completion:     0.000
   Size of expansion space: 50
   Lowest Energy          :     0.136752121263
   Maximum Energy change  :     0.000758459448 (vector 5)
   Maximum residual norm  :     0.000014305257

                       ****Iteration    3****
   Time for densities:     0.000
   Time for J+K (Conventional):     0.002
   Time for Sigma-Completion:     0.000
   Size of expansion space: 60
   Lowest Energy          :     0.136751374847
   Maximum Energy change  :     0.000016305757 (vector 5)
   Maximum residual norm  :     0.000000210029

      *** CONVERGENCE OF RESIDUAL NORM REACHED ***

Storing the converged CI vectors               ... orca.cis1

                 *** DAVIDSON DONE ***

Total time for solving the CIS problem:     0.033sec

-----------------------------
CIS-EXCITED STATES (SINGLETS)
-----------------------------

the weight of the individual excitations are printed if larger than 1.0e-02

STATE  1:  E=   0.136751 au      3.721 eV    30013.5 cm**-1
    15a ->  16a  :     0.983862 (c= -0.99189833)

STATE  2:  E=   0.186302 au      5.070 eV    40888.6 cm**-1
    14a ->  16a  :     0.055528 (c= -0.23564429)
    15a ->  17a  :     0.927033 (c=  0.96282530)

STATE  3:  E=   0.192106 au      5.227 eV    42162.5 cm**-1
    14a ->  19a  :     0.050178 (c= -0.22400342)
    15a ->  18a  :     0.942329 (c=  0.97073646)

STATE  4:  E=   0.205938 au      5.604 eV    45198.1 cm**-1
    14a ->  18a  :     0.091124 (c=  0.30186704)
    15a ->  19a  :     0.899910 (c= -0.94863566)

STATE  5:  E=   0.244660 au      6.658 eV    53696.7 cm**-1
    14a ->  22a  :     0.029787 (c= -0.17258960)
    15a ->  20a  :     0.950824 (c= -0.97510192)

STATE  6:  E=   0.250860 au      6.826 eV    55057.4 cm**-1
    13a ->  18a  :     0.015060 (c= -0.12272119)
    14a ->  16a  :     0.897387 (c=  0.94730507)
    15a ->  17a  :     0.041971 (c=  0.20486845)

STATE  7:  E=   0.262598 au      7.146 eV    57633.6 cm**-1
    14a ->  17a  :     0.966717 (c=  0.98321791)

STATE  8:  E=   0.281586 au      7.662 eV    61800.9 cm**-1
    14a ->  19a  :     0.029593 (c=  0.17202605)
    14a ->  22a  :     0.037892 (c=  0.19465986)
    15a ->  21a  :     0.903870 (c=  0.95072088)

STATE  9:  E=   0.281662 au      7.664 eV    61817.6 cm**-1
    14a ->  20a  :     0.174635 (c= -0.41789342)
    14a ->  21a  :     0.030620 (c= -0.17498474)
    15a ->  22a  :     0.777320 (c= -0.88165744)

STATE 10:  E=   0.292442 au      7.958 eV    64183.6 cm**-1
    13a ->  16a  :     0.020496 (c=  0.14316525)
    14a ->  18a  :     0.867652 (c= -0.93147830)
    15a ->  19a  :     0.089319 (c= -0.29886349)


----------------------
CIS-EXCITATION SPECTRA
----------------------

Center of mass = ( -3.6424,  3.3809,  5.7853)
Calculating the Dipole integrals                  ... done
Transforming integrals                            ... done
Calculating the Linear Momentum integrals         ... done
Transforming integrals                            ... done
Calculating angular momentum integrals            ... done
Transforming integrals                            ... done

-----------------------------------------------------------------------------
         ABSORPTION SPECTRUM VIA TRANSITION ELECTRIC DIPOLE MOMENTS
-----------------------------------------------------------------------------
State   Energy    Wavelength  fosc         T2        TX        TY        TZ  
        (cm-1)      (nm)                 (au**2)    (au)      (au)      (au) 
-----------------------------------------------------------------------------
   1   30013.5    333.2   0.010676470   0.11711   0.14257   0.30936   0.03284
   2   40888.6    244.6   0.096494251   0.77692  -0.50712   0.15911   0.70315
   3   42162.5    237.2   0.000114480   0.00089   0.02097  -0.01156   0.01790
   4   45198.1    221.2   0.000000000   0.00000  -0.00000  -0.00001   0.00000
   5   53696.7    186.2   0.002179989   0.01337  -0.08141   0.04482  -0.06877
   6   55057.4    181.6   0.503036803   3.00787  -0.99785   0.31306   1.38354
   7   57633.6    173.5   0.003823161   0.02184   0.06153   0.13360   0.01424
   8   61800.9    161.8   0.000159628   0.00085  -0.02053   0.01130  -0.01736
   9   61817.6    161.8   0.000000001   0.00000   0.00004  -0.00002   0.00004
  10   64183.6    155.8   0.000000000   0.00000  -0.00001  -0.00002   0.00000

-----------------------------------------------------------------------------
         ABSORPTION SPECTRUM VIA TRANSITION VELOCITY DIPOLE MOMENTS
-----------------------------------------------------------------------------
State   Energy    Wavelength   fosc        P2         PX        PY        PZ  
        (cm-1)      (nm)                 (au**2)     (au)      (au)      (au) 
-----------------------------------------------------------------------------
   1   30013.5    333.2   0.006166631   0.00126  -0.01482  -0.03215  -0.00341
   2   40888.6    244.6   0.049560661   0.01385   0.06771  -0.02124  -0.09388
   3   42162.5    237.2   0.000038608   0.00001   0.00236  -0.00130   0.00197
   4   45198.1    221.2   0.000000000   0.00000   0.00000   0.00000   0.00000
   5   53696.7    186.2   0.007873155   0.00289  -0.03783   0.02083  -0.03201
   6   55057.4    181.6   0.165882119   0.06242   0.14375  -0.04510  -0.19930
   7   57633.6    173.5   0.002571418   0.00101  -0.01325  -0.02877  -0.00307
   8   61800.9    161.8   0.004321387   0.00183  -0.03008   0.01656  -0.02543
   9   61817.6    161.8   0.000000017   0.00000   0.00006  -0.00003   0.00005
  10   64183.6    155.8   0.000000000   0.00000   0.00001   0.00001   0.00000

-------------------------------------------------------------------
                             CD SPECTRUM
-------------------------------------------------------------------
State  Energy     Wavelength     R         MX        MY        MZ   
       (cm-1)       (nm)     (1e40*cgs)   (au)      (au)      (au)  
-------------------------------------------------------------------
   1   30013.5    333.2     -0.00035   0.35990  -0.19818   0.30441
   2   40888.6    244.6      0.00005  -0.00000  -0.00001   0.00000
   3   42162.5    237.2      0.00001  -0.00007  -0.00015  -0.00002
   4   45198.1    221.2     -0.00001  -0.01693   0.00531   0.02345
   5   53696.7    186.2      0.00001  -0.00884  -0.01918  -0.00203
   6   55057.4    181.6      0.00051  -0.00001  -0.00001  -0.00000
   7   57633.6    173.5     -0.00008  -0.14670   0.08078  -0.12407
   8   61800.9    161.8      0.00000  -0.06022  -0.13047  -0.01375
   9   61817.6    161.8      0.00005  -0.03703   0.01192   0.05153
  10   64183.6    155.8     -0.00003   0.01060  -0.00332  -0.01470

Total run time:        0.094 sec

           *** ORCA-CIS/TD-DFT FINISHED WITHOUT ERROR ***

-----------------------
CIS/TD-DFT TOTAL ENERGY
-----------------------

    E(SCF)  =     -7.932728355 Eh
    DE(CIS) =      0.136751375 Eh (Root  1)
    ----------------------------- ---------
    E(tot)  =     -7.795976980 Eh


-------------------------   --------------------
FINAL SINGLE POINT ENERGY        -7.795976979967
-------------------------   --------------------


                            ***************************************
                            *     ORCA property calculations      *
                            ***************************************

                                    ---------------------
                                    Active property flags
                                    ---------------------
   (+) Dipole Moment


------------------------------------------------------------------------------
                       ORCA ELECTRIC PROPERTIES CALCULATION
------------------------------------------------------------------------------

Dipole Moment Calculation                       ... on
Quadrupole Moment Calculation                   ... off
Polarizability Calculation                      ... off
GBWName                                         ... orca.gbw
Electron density file                           ... orca.scfp
The origin for moment calculation is the CENTER OF MASS  = (-3.642379,  3.380930  5.785298)

-------------
DIPOLE MOMENT
-------------
                                X             Y             Z
Electronic contribution:     -4.04062       1.26780       5.60190
Nuclear contribution   :      1.18885      -0.37303      -1.64807
                        -----------------------------------------
Total Dipole Moment    :     -2.85177       0.89477       3.95382
                        -----------------------------------------
Magnitude (a.u.)       :      4.95640
Magnitude (Debye)      :     12.59817



--------------------
Rotational spectrum 
--------------------
 
Rotational constants in cm-1:     0.198673     0.183920     0.095506 
Rotational constants in MHz :  5956.052965  5513.781482  2863.195167 

 Dipole components along the rotational axes: 
x,y,z [a.u.] :     4.956401    -0.000209    -0.000151 
x,y,z [Debye]:    12.598170    -0.000531    -0.000384 

 

Timings for individual modules:

Sum of individual times         ...        0.245 sec (=   0.004 min)
STO integral calculation        ...        0.015 sec (=   0.000 min)   6.2 %
SCF iterations                  ...        0.123 sec (=   0.002 min)  50.3 %
CIS module                      ...        0.106 sec (=   0.002 min)  43.5 %
                             ****ORCA TERMINATED NORMALLY****
TOTAL RUN TIME: 0 days 0 hours 0 minutes 0 seconds 315 msec
