[Molden Format]
[Title]
 Molden file created by orca_2mkl for BaseName=1

[Atoms] AU
C    1   6          3.4557079676        -2.1272353931        -0.2205028560 
C    2   6          1.6265502272        -0.7322856960         1.0336907252 
C    3   6          5.3376771117        -3.3526346755         1.1401423038 
C    4   6          1.6771065483        -0.5607911513         3.6487176349 
C    5   6          5.3866849160        -3.1811114974         3.7480396907 
C    6   6          3.5561482401        -1.7835293987         5.0225084056 
C    7   6          3.6852075249        -1.6543050473         7.8506151947 
C    8   6          1.7037964831        -0.1392152119         9.2364665837 
O    9   8          5.3407003939        -2.7420723566         8.9920346695 
H   10   1          3.4168721303        -2.2611934644        -2.2577989082 
H   11   1          0.1619429958         0.2214043385        -0.0210779302 
H   12   1          6.7628597029        -4.4393651352         0.1624242542 
H   13   1          0.2442474868         0.5297381121         4.6081664640 
H   14   1          6.8298768414        -4.1174086086         4.8447216721 
H   15   1         -0.1747462295        -0.8901187132         8.8557707384 
H   16   1          1.7261248560         1.8229717902         8.6155547872 
H   17   1          2.0895920143        -0.2335969398        11.2468449927 
[GTO]
  1 0
s   3 1.0 
       71.6168370000         2.7078144539
       13.0450960000         2.6188801561
        3.5305122000         0.8161905763
s   3 1.0 
        2.9412494000        -0.1600171900
        0.6834831000         0.2140359176
        0.2222899000         0.1615360892
p   3 1.0 
        2.9412494000         0.8560445069
        0.6834831000         0.5383037696
        0.2222899000         0.0852763521

  2 0
s   3 1.0 
       71.6168370000         2.7078144539
       13.0450960000         2.6188801561
        3.5305122000         0.8161905763
s   3 1.0 
        2.9412494000        -0.1600171900
        0.6834831000         0.2140359176
        0.2222899000         0.1615360892
p   3 1.0 
        2.9412494000         0.8560445069
        0.6834831000         0.5383037696
        0.2222899000         0.0852763521

  3 0
s   3 1.0 
       71.6168370000         2.7078144539
       13.0450960000         2.6188801561
        3.5305122000         0.8161905763
s   3 1.0 
        2.9412494000        -0.1600171900
        0.6834831000         0.2140359176
        0.2222899000         0.1615360892
p   3 1.0 
        2.9412494000         0.8560445069
        0.6834831000         0.5383037696
        0.2222899000         0.0852763521

  4 0
s   3 1.0 
       71.6168370000         2.7078144539
       13.0450960000         2.6188801561
        3.5305122000         0.8161905763
s   3 1.0 
        2.9412494000        -0.1600171900
        0.6834831000         0.2140359176
        0.2222899000         0.1615360892
p   3 1.0 
        2.9412494000         0.8560445069
        0.6834831000         0.5383037696
        0.2222899000         0.0852763521

  5 0
s   3 1.0 
       71.6168370000         2.7078144539
       13.0450960000         2.6188801561
        3.5305122000         0.8161905763
s   3 1.0 
        2.9412494000        -0.1600171900
        0.6834831000         0.2140359176
        0.2222899000         0.1615360892
p   3 1.0 
        2.9412494000         0.8560445069
        0.6834831000         0.5383037696
        0.2222899000         0.0852763521

  6 0
s   3 1.0 
       71.6168370000         2.7078144539
       13.0450960000         2.6188801561
        3.5305122000         0.8161905763
s   3 1.0 
        2.9412494000        -0.1600171900
        0.6834831000         0.2140359176
        0.2222899000         0.1615360892
p   3 1.0 
        2.9412494000         0.8560445069
        0.6834831000         0.5383037696
        0.2222899000         0.0852763521

  7 0
s   3 1.0 
       71.6168370000         2.7078144539
       13.0450960000         2.6188801561
        3.5305122000         0.8161905763
s   3 1.0 
        2.9412494000        -0.1600171900
        0.6834831000         0.2140359176
        0.2222899000         0.1615360892
p   3 1.0 
        2.9412494000         0.8560445069
        0.6834831000         0.5383037696
        0.2222899000         0.0852763521

  8 0
s   3 1.0 
       71.6168370000         2.7078144539
       13.0450960000         2.6188801561
        3.5305122000         0.8161905763
s   3 1.0 
        2.9412494000        -0.1600171900
        0.6834831000         0.2140359176
        0.2222899000         0.1615360892
p   3 1.0 
        2.9412494000         0.8560445069
        0.6834831000         0.5383037696
        0.2222899000         0.0852763521

  9 0
s   3 1.0 
      130.7093200000         4.2519432829
       23.8088610000         4.1122937184
        6.4436083000         1.2816225326
s   3 1.0 
        5.0331513000        -0.2394130030
        1.1695961000         0.3202342291
        0.3803890000         0.2416855708
p   3 1.0 
        5.0331513000         1.6754501181
        1.1695961000         1.0535680080
        0.3803890000         0.1669028981

 10 0
s   3 1.0 
        3.4252509100         0.2769343610
        0.6239137300         0.2678388518
        0.1688554000         0.0834736696

 11 0
s   3 1.0 
        3.4252509100         0.2769343610
        0.6239137300         0.2678388518
        0.1688554000         0.0834736696

 12 0
s   3 1.0 
        3.4252509100         0.2769343610
        0.6239137300         0.2678388518
        0.1688554000         0.0834736696

 13 0
s   3 1.0 
        3.4252509100         0.2769343610
        0.6239137300         0.2678388518
        0.1688554000         0.0834736696

 14 0
s   3 1.0 
        3.4252509100         0.2769343610
        0.6239137300         0.2678388518
        0.1688554000         0.0834736696

 15 0
s   3 1.0 
        3.4252509100         0.2769343610
        0.6239137300         0.2678388518
        0.1688554000         0.0834736696

 16 0
s   3 1.0 
        3.4252509100         0.2769343610
        0.6239137300         0.2678388518
        0.1688554000         0.0834736696

 17 0
s   3 1.0 
        3.4252509100         0.2769343610
        0.6239137300         0.2678388518
        0.1688554000         0.0834736696

[5D]
[7F]
[9G]
[MO]
 Sym=     1a
 Ene= 0.00000000000000E+00
 Spin= Alpha
 Occup= -0.000000
  1      -0.002217291935
  2       0.013440220685
  3       0.019527859800
  4      -0.011202547746
  5       0.028472297306
  6       0.023113685655
  7      -0.063058277811
  8      -0.010805626562
  9       0.003233807711
 10      -0.053641343319
 11       0.036699093488
 12      -0.090620520995
 13      -0.084471862921
 14       0.059550995400
 15      -0.012577159493
 16       0.051111313444
 17      -0.129086248743
 18      -0.050634285912
 19       0.036739287287
 20       0.016118391137
 21       0.087353810754
 22      -0.232984114032
 23      -0.050176941517
 24       0.031493589953
 25      -0.057102846490
 26       0.075539260395
 27      -0.204752737482
 28       0.014342153050
 29      -0.009994034833
 30       0.005891074272
 31      -0.055843527444
 32       0.196608027457
 33       0.205940119994
 34      -0.135784880236
 35       0.146636871470
 36       0.033099925670
 37      -0.101178079613
 38      -0.027862604122
 39       0.019611332996
 40       0.002197942641
 41       0.110959619823
 42      -0.541232158474
 43      -0.397034670938
 44       0.260214903315
 45      -0.271967451849
 46      -0.018632220934
 47       0.013478406790
 48      -0.098945525446
 49       0.016546214153
 50      -0.150040748634
 51      -0.003615077952
 52      -0.003310739886
 53      -0.053285177740
 Sym=     1a
 Ene= 0.00000000000000E+00
 Spin= Alpha
 Occup= -0.000000
  1      -0.056523513602
  2       0.156215195686
  3       0.037609898233
  4      -0.025057863307
  5       0.045275190458
  6      -0.016251017737
  7       0.049176842697
  8      -0.063656255081
  9       0.031606151969
 10      -0.154073839388
 11      -0.011596651357
 12       0.024440986738
 13      -0.159103393431
 14       0.115538490204
 15       0.060572474131
 16       0.097459202948
 17      -0.276717793074
 18      -0.031530611794
 19       0.022902137253
 20       0.012547488412
 21      -0.023331956070
 22       0.073083711821
 23       0.000226912263
 24      -0.004551351628
 25      -0.041233150972
 26       0.039040003743
 27      -0.108444010722
 28       0.054564140803
 29      -0.034490638666
 30       0.056813575749
 31      -0.093532979102
 32       0.215282353788
 33       0.031028491611
 34      -0.014945816150
 35       0.088341556911
 36      -0.016663805987
 37       0.042979277590
 38       0.058505877474
 39      -0.044086018791
 40      -0.036942815926
 41      -0.176237276103
 42       0.631593146649
 43      -0.051634190093
 44       0.036235976335
 45      -0.008467594677
 46       0.014972874761
 47       0.144729956660
 48      -0.167386281045
 49      -0.066839544669
 50       0.023074984515
 51      -0.015503833263
 52      -0.015287559974
 53      -0.007051446728
 Sym=     1a
 Ene= 0.00000000000000E+00
 Spin= Alpha
 Occup= 0.000000
  1       0.000010550796
  2       0.000003506938
  3       0.000000043826
  4       0.000000360168
  5       0.000004586166
  6      -0.000207991595
  7      -0.000065523129
  8      -0.000000047964
  9      -0.000003656399
 10      -0.000042686829
 11      -0.000028194219
 12      -0.000010416291
 13      -0.000000763385
 14       0.000000003722
 15      -0.000006568947
 16      -0.001535963883
 17      -0.000032563204
 18      -0.000053142226
 19       0.000025302360
 20      -0.000177214838
 21      -0.000442563358
 22      -0.000065604137
 23       0.000017169726
 24      -0.000016755814
 25      -0.000057923286
 26      -0.001828250462
 27       0.000132206977
 28      -0.000021313654
 29       0.000014664895
 30      -0.000010088023
 31       0.002306760948
 32      -0.006009707173
 33       0.002999499638
 34      -0.002305786889
 35      -0.002247094468
 36       0.991882041830
 37       0.038211212663
 38       0.000030239557
 39      -0.000037232614
 40      -0.000066639004
 41      -0.000022889156
 42       0.000302413824
 43      -0.000175915597
 44       0.000132072853
 45       0.000083912196
 46       0.000000378366
 47       0.000006581406
 48       0.000001428849
 49      -0.000136056427
 50      -0.000013450684
 51      -0.007009185114
 52      -0.007007998285
 53      -0.007026285499
 Sym=     1a
 Ene= 0.00000000000000E+00
 Spin= Alpha
 Occup= 0.000000
  1      -0.984870256078
  2      -0.035684454757
  3      -0.000026579759
  4      -0.000061643630
  5      -0.001021859049
  6      -0.049134159980
  7       0.004752982019
  8       0.003112787467
  9      -0.002401812261
 10      -0.002486451384
 11      -0.039743478689
 12       0.005634911363
 13      -0.003200468465
 14       0.002085429405
 15      -0.002294135086
 16       0.089774240114
 17       0.003067738782
 18      -0.000021928571
 19      -0.000012048078
 20      -0.000346915216
 21       0.009569344208
 22       0.000060030096
 23       0.000081612603
 24      -0.000077083012
 25      -0.000243525359
 26       0.048889497933
 27       0.001153582558
 28       0.000257114923
 29      -0.000184015445
 30      -0.000020978961
 31       0.000088426803
 32      -0.000225101939
 33       0.000003730177
 34       0.000009775511
 35       0.000158174545
 36       0.000235660965
 37       0.000016054039
 38      -0.000001877111
 39       0.000002478932
 40       0.000013922176
 41       0.000000173736
 42       0.000006820250
 43      -0.000003703930
 44       0.000002390862
 45      -0.000003056155
 46       0.006787023883
 47       0.000250115241
 48       0.000175175653
 49      -0.000526960280
 50       0.000018300305
 51      -0.000005549607
 52      -0.000005674776
 53      -0.000009910552
 Sym=     1a
 Ene= 0.00000000000000E+00
 Spin= Alpha
 Occup= 0.000000
  1      -0.093845553881
  2      -0.003307356977
  3      -0.000163596550
  4       0.000122098520
  5       0.000077439138
  6      -0.062706902966
  7       0.005461573907
  8       0.000426306451
  9       0.000028765731
 10       0.004174295805
 11       0.009113335821
 12       0.001017989751
 13      -0.000472060078
 14       0.000323754794
 15      -0.000134498205
 16      -0.973018959370
 17      -0.034334305055
 18      -0.000252857767
 19       0.000235179009
 20       0.000682481675
 21       0.005330489138
 22       0.001026551144
 23      -0.000534355461
 24       0.000400777157
 25       0.000280812809
 26      -0.158460268295
 27       0.001206662388
 28      -0.003130686151
 29       0.002044171652
 30      -0.002205849247
 31      -0.000542833079
 32       0.000767276295
 33      -0.000051448779
 34      -0.000012421660
 35      -0.000624429072
 36      -0.001834524158
 37      -0.000073795255
 38       0.000025208847
 39      -0.000026819293
 40      -0.000115639366
 41      -0.000006502388
 42       0.000032774945
 43      -0.000006634950
 44       0.000003912120
 45      -0.000011153775
 46       0.000744720885
 47       0.000339039199
 48       0.000010916189
 49       0.006740432676
 50       0.000060794767
 51      -0.000000554473
 52      -0.000001355568
 53       0.000067914100
 Sym=     1a
 Ene= 0.00000000000000E+00
 Spin= Alpha
 Occup= 0.000000
  1       0.035975773232
  2       0.001400871807
  3      -0.000075800261
  4       0.000046043069
  5      -0.000097494348
  6      -0.027191143593
  7       0.000153703701
  8      -0.000164542819
  9       0.000181943098
 10       0.000824951137
 11       0.000217015482
 12      -0.000567129436
 13       0.000132419360
 14      -0.000110015544
 15      -0.000205407905
 16      -0.159284597128
 17      -0.012808017522
 18      -0.003342901290
 19       0.002189773370
 20      -0.002270891171
 21       0.080954598189
 22      -0.004225382943
 23       0.003084306029
 24      -0.002353466768
 25      -0.002133300823
 26       0.974772448096
 27       0.036560584437
 28      -0.000681355579
 29       0.000379681457
 30      -0.001251098757
 31       0.002096198117
 32      -0.005988595927
 33       0.000075481625
 34       0.000268254880
 35       0.004114323508
 36       0.001597155589
 37       0.000248358942
 38       0.000012845190
 39      -0.000005795626
 40       0.000025905150
 41      -0.000022749962
 42       0.000323911015
 43      -0.000091906043
 44       0.000050016415
 45      -0.000196785475
 46      -0.000303069374
 47       0.000083975723
 48      -0.000063311933
 49       0.001170626013
 50      -0.000468489621
 51      -0.000102284386
 52      -0.000105911020
 53      -0.000096561287
 Sym=     1a
 Ene= 0.00000000000000E+00
 Spin= Alpha
 Occup= 0.000000
  1       0.019885458693
  2       0.002415936753
  3      -0.001691693253
  4       0.001230858222
  5       0.000411284322
  6      -0.372840904840
  7      -0.014304929100
  8      -0.000546170592
  9       0.000346062097
 10      -0.000514918514
 11       0.179227348285
 12      -0.000238384549
 13      -0.000079905975
 14      -0.000250346465
 15      -0.003882713165
 16       0.041252478278
 17       0.005059748968
 18       0.000270165686
 19      -0.000306191858
 20      -0.001444445543
 21       0.897270102800
 22       0.032443979045
 23      -0.001097714645
 24       0.000807940708
 25       0.000396318456
 26      -0.078147872572
 27      -0.009789411670
 28      -0.002622786480
 29       0.002036414477
 30       0.002250240426
 31       0.000177801794
 32       0.000622211303
 33      -0.000132785441
 34       0.000063581938
 35      -0.000392962275
 36       0.000256661793
 37      -0.000078739972
 38      -0.000025201460
 39       0.000021599273
 40       0.000048027128
 41      -0.000001568300
 42       0.000050871342
 43      -0.000004040552
 44       0.000005031262
 45       0.000025934835
 46      -0.000241202988
 47       0.002518610115
 48      -0.001116206504
 49      -0.000425806083
 50      -0.006168388625
 51       0.000011736307
 52       0.000012047457
 53       0.000000649242
 Sym=     1a
 Ene= 0.00000000000000E+00
 Spin= Alpha
 Occup= 0.000000
  1       0.047986541876
  2       0.008699392852
  3      -0.002767157002
  4       0.002138816648
  5       0.002258066842
  6      -0.915080956598
  7      -0.034538541312
  8      -0.000937821856
  9       0.000609604849
 10      -0.000688504887
 11      -0.039797178753
 12       0.000690004310
 13       0.000208342415
 14      -0.000001250073
 15       0.001850822713
 16       0.049175520695
 17       0.008373448509
 18       0.000007675895
 19      -0.000343448480
 20      -0.004262318704
 21      -0.374789721744
 22      -0.013512513620
 23       0.000232162886
 24      -0.000170217947
 25      -0.000077606135
 26       0.011649347839
 27       0.002550347628
 28       0.001376317149
 29      -0.001035612091
 30      -0.000764767383
 31      -0.000160483399
 32      -0.000051262323
 33       0.000027143127
 34      -0.000017783636
 35       0.000018663993
 36      -0.000273134684
 37       0.000028696686
 38       0.000002587960
 39      -0.000005069293
 40      -0.000038274349
 41       0.000001180100
 42      -0.000026041498
 43      -0.000000484668
 44      -0.000000086267
 45      -0.000004755305
 46      -0.000393826284
 47       0.006368399971
 48       0.000325987057
 49      -0.000397121464
 50       0.002635981377
 51       0.000002643288
 52       0.000003032304
 53       0.000008303261
 Sym=     1a
 Ene= 0.00000000000000E+00
 Spin= Alpha
 Occup= 0.000000
  1       0.040208805276
  2       0.008873393994
  3       0.003052665506
  4      -0.001963411425
  5       0.002513988295
  6      -0.029853874680
  7      -0.001627919823
  8      -0.000191055905
  9       0.000147307021
 10       0.000151143535
 11      -0.974162451465
 12      -0.037668749975
 13       0.000982426415
 14      -0.000804353795
 15      -0.001369947183
 16      -0.007287847203
 17       0.000243187488
 18       0.000201766292
 19      -0.000156993203
 20      -0.000177425609
 21       0.179285973457
 22       0.013977350750
 23      -0.000401274155
 24      -0.000073448968
 25      -0.004520108545
 26      -0.018162314243
 27      -0.002200397119
 28      -0.000647125197
 29       0.000489613605
 30       0.000392287303
 31      -0.000041682533
 32       0.000214469276
 33       0.000000328054
 34      -0.000011012702
 35      -0.000139073980
 36       0.000001649897
 37      -0.000012386170
 38      -0.000000733040
 39       0.000001105658
 40       0.000007612830
 41      -0.000002131860
 42       0.000011472969
 43       0.000010134100
 44      -0.000007551618
 45      -0.000005021723
 46      -0.000389328676
 47       0.000289319818
 48       0.006759196510
 49       0.000088926782
 50      -0.001345463630
 51       0.000001329612
 52       0.000001357771
 53       0.000000711570
 Sym=     1a
 Ene= 0.00000000000000E+00
 Spin= Alpha
 Occup= 0.000000
  1      -0.000000173088
  2       0.000000128651
  3      -0.000002905994
  4       0.000002380433
  5       0.000003996445
  6       0.000001384815
  7      -0.000024397518
  8      -0.000003972919
  9       0.000001543151
 10      -0.000016020023
 11       0.000002308085
 12      -0.000025035274
 13      -0.000015472528
 14       0.000009413536
 15      -0.000019067541
 16       0.000004038999
 17       0.000039842833
 18       0.000036324053
 19      -0.000030341519
 20      -0.000059253775
 21      -0.000005683614
 22       0.000011034207
 23       0.000162616445
 24      -0.000118723038
 25      -0.000047549411
 26      -0.000026603249
 27       0.000364706106
 28       0.000394316387
 29      -0.000266428841
 30       0.000177228410
 31       0.000546860559
 32      -0.007524488047
 33      -0.004720121843
 34       0.003102122068
 35      -0.003247049464
 36      -0.000027643379
 37       0.000356279407
 38       0.000334083382
 39      -0.000208695148
 40       0.000346538975
 41       0.994239434936
 42       0.026281317952
 43      -0.004193738159
 44       0.002754257834
 45      -0.002907710771
 46       0.000000836473
 47       0.000000774374
 48       0.000009791419
 49      -0.000017242517
 50      -0.000316369687
 51       0.000030443890
 52       0.000029699329
 53      -0.000245505492
 Sym=     1a
 Ene= 0.00000000000000E+00
 Spin= Alpha
 Occup= 0.000000
  1       0.000026772971
  2      -0.000007121564
  3       0.000000068211
  4       0.000001151408
  5       0.000015085187
  6       0.000042322477
  7       0.000047157705
  8       0.000027561488
  9      -0.000016891839
 10       0.000032254319
 11       0.000053946394
 12       0.000110680261
 13      -0.000031048607
 14       0.000027963606
 15       0.000074385224
 16       0.000173503285
 17      -0.000138006420
 18       0.000030130397
 19      -0.000024874290
 20      -0.000044912227
 21       0.000326202983
 22      -0.000278340978
 23       0.000003670035
 24       0.000004780245
 25       0.000093649614
 26       0.001126941042
 27       0.005883138529
 28       0.000362450647
 29       0.000064171301
 30       0.004123487699
 31      -0.992506154465
 32      -0.033220973750
 33      -0.000532773774
 34       0.000362938139
 35      -0.000238981054
 36       0.001335400893
 37       0.005536049520
 38       0.002997349964
 39      -0.002268595176
 40      -0.001823328702
 41      -0.000133618318
 42       0.005993888954
 43      -0.001228812445
 44       0.000806766590
 45      -0.000850845428
 46       0.000007237227
 47       0.000007212269
 48       0.000002883848
 49       0.000104278245
 50       0.000323208412
 51       0.000139329520
 52       0.000134472478
 53       0.000078599883
 Sym=     1a
 Ene= 0.00000000000000E+00
 Spin= Alpha
 Occup= 0.000000
  1      -0.045989970686
  2       0.105927634057
  3      -0.024276357017
  4       0.012388344488
  5      -0.002465974894
  6      -0.017006680184
  7       0.050338927281
  8      -0.080237374391
  9       0.037644900801
 10      -0.222783314588
 11      -0.087754124629
 12       0.236679338680
 13      -0.062226672183
 14       0.054903661518
 15       0.207635239748
 16       0.096829600024
 17      -0.293545085794
 18       0.020549238616
 19      -0.009072355990
 20       0.060970495985
 21      -0.078646974030
 22       0.199651111814
 23      -0.191612772525
 24       0.114185285659
 25      -0.229752349186
 26      -0.044960957094
 27       0.138261788627
 28       0.097264356388
 29      -0.069655992442
 30      -0.006544709223
 31       0.043843162359
 32      -0.091596411221
 33      -0.059689280194
 34       0.033647195556
 35      -0.118351614650
 36      -0.005017888384
 37       0.017120596126
 38      -0.030965485831
 39       0.023156343182
 40       0.014468857657
 41       0.095323744584
 42      -0.324447912323
 43       0.089302213616
 44      -0.060355740481
 45       0.035805729260
 46       0.044751395538
 47       0.183218797053
 48      -0.050400181669
 49      -0.089464574421
 50      -0.193608950858
 51       0.018323508640
 52       0.018361391302
 53       0.015203804524
 Sym=     1a
 Ene= 0.00000000000000E+00
 Spin= Alpha
 Occup= 0.000000
  1       0.060299435440
  2      -0.154728674469
  3      -0.021146420988
  4       0.010159210824
  5      -0.068193391334
  6       0.117994477516
  7      -0.301871259959
  8       0.076266346194
  9      -0.051863441699
 10       0.012180320500
 11       0.000738800084
 12       0.005138735358
 13       0.134001080795
 14      -0.095080863962
 15       0.001661416240
 16       0.146195814929
 17      -0.381860405207
 18       0.034466339917
 19      -0.027986637140
 20      -0.056862701055
 21       0.008364016638
 22      -0.013673880107
 23       0.032308706846
 24      -0.024172058580
 25      -0.008967720593
 26       0.092642077120
 27      -0.231944557799
 28       0.071552724195
 29      -0.051716981146
 30      -0.013007391774
 31       0.063533215486
 32      -0.175878930884
 33      -0.055488707339
 34       0.042615924188
 35       0.044917549911
 36      -0.002587563880
 37       0.016227900207
 38       0.004386650472
 39      -0.003110352354
 40      -0.002206927223
 41      -0.016343099650
 42       0.104150449691
 43       0.113348272359
 44      -0.072558935477
 45       0.108016132672
 46       0.006080157661
 47      -0.186468817351
 48       0.125189317382
 49      -0.179956533557
 50       0.008218165430
 51       0.001856482201
 52       0.002014880297
 53       0.001892766677
 Sym=     1a
 Ene= 0.00000000000000E+00
 Spin= Alpha
 Occup= 0.000000
  1       0.067704222649
  2      -0.164994750520
  3      -0.092067875708
  4       0.061914544378
  5      -0.035669055331
  6       0.006562401671
  7      -0.007981834929
  8      -0.064183938715
  9       0.036507771438
 10      -0.111119067282
 11       0.180409142503
 12      -0.489592237353
 13      -0.093888298060
 14       0.073560803740
 15       0.097093912206
 16       0.023176441077
 17      -0.072564430100
 18       0.023106653317
 19      -0.009370586331
 20       0.087443918333
 21       0.048521845212
 22      -0.111639897078
 23      -0.047967022570
 24       0.039446142493
 25       0.074004097280
 26      -0.033142517726
 27       0.105080491942
 28      -0.019375900781
 29       0.016165689055
 30       0.030250067460
 31       0.029025627802
 32      -0.083748422125
 33      -0.109105140578
 34       0.069849937018
 35      -0.104970224932
 36      -0.027652506008
 37       0.080191080315
 38      -0.006321903911
 39       0.003971726433
 40      -0.005891645941
 41       0.005140038382
 42       0.037724382903
 43       0.172557068276
 44      -0.113675010818
 45       0.108268258067
 46      -0.028946830094
 47       0.101020071149
 48      -0.297502769774
 49      -0.015136084667
 50      -0.039961044436
 51       0.023375549480
 52       0.023242653710
 53       0.027236606547
 Sym=     1a
 Ene= 0.00000000000000E+00
 Spin= Alpha
 Occup= 0.000000
  1      -0.071016656824
  2       0.192232362424
  3       0.072376512922
  4      -0.042980705729
  5       0.073982016214
  6      -0.107609237169
  7       0.294472405829
  8      -0.054792821000
  9       0.043610778174
 10       0.040451554809
 11       0.015697518029
 12      -0.058688877302
 13      -0.139103105317
 14       0.090984395576
 15      -0.122019486892
 16       0.008214524370
 17      -0.021401017896
 18      -0.024969701605
 19       0.003790356452
 20      -0.181077627035
 21       0.000512046061
 22       0.020876785022
 23       0.164533450925
 24      -0.103801919239
 25       0.149922371530
 26       0.121746175056
 27      -0.339556124956
 28       0.014119579183
 29      -0.015623714424
 30      -0.073056289045
 31       0.110451943813
 32      -0.297153952808
 33      -0.036256693944
 34       0.034762039520
 35       0.117155290574
 36       0.001282300806
 37       0.008063583009
 38      -0.020866359940
 39       0.014782863711
 40       0.002490837916
 41       0.044589036205
 42      -0.128696035165
 43       0.072463453349
 44      -0.044164780701
 45       0.094761326450
 46      -0.000385711488
 47       0.149211733823
 48      -0.110178339911
 49      -0.071178404860
 50       0.233413946849
 51       0.016163560059
 52       0.016143101185
 53      -0.007491580851
 Sym=     1a
 Ene= 0.00000000000000E+00
 Spin= Alpha
 Occup= 0.000000
  1       0.063786467968
  2      -0.178738093036
  3      -0.255936955897
  4       0.156779872246
  5      -0.281155704240
  6      -0.073024114375
  7       0.207288666947
  8      -0.028937300341
  9       0.022900287193
 10       0.035022065354
 11       0.061145197855
 12      -0.179665063626
 13       0.254522257209
 14      -0.161014186787
 15       0.282978747883
 16      -0.013355857502
 17       0.041077899063
 18      -0.014775115942
 19      -0.001461228420
 20      -0.158875050473
 21      -0.098532571147
 22       0.289784392334
 23       0.033629798557
 24      -0.032320458120
 25      -0.081194972413
 26       0.017162585279
 27      -0.057955138536
 28       0.075700195172
 29      -0.059146182469
 30      -0.067634450925
 31      -0.019298079656
 32       0.057022007246
 33       0.084841364648
 34      -0.052203552363
 35       0.101388144874
 36       0.013209373574
 37      -0.036737995974
 38       0.001645036634
 39      -0.001150535282
 40      -0.000577722103
 41       0.001631065491
 42      -0.052974887133
 43      -0.142714634034
 44       0.095095455588
 45      -0.083332153920
 46       0.188742567709
 47       0.045303361053
 48       0.040260303341
 49      -0.039708658432
 50       0.059415806269
 51      -0.007574291623
 52      -0.007434119285
 53      -0.022617632217
 Sym=     1a
 Ene= 0.00000000000000E+00
 Spin= Alpha
 Occup= 0.000000
  1       0.134614202206
  2      -0.397329115542
  3       0.014671441943
  4       0.021065261833
  5       0.395980565186
  6      -0.036559383946
  7       0.123310470011
  8      -0.023945446809
  9       0.020719674144
 10       0.043912510417
 11      -0.034168187807
 12       0.111054523119
 13      -0.027175297071
 14       0.027400030492
 15       0.105022134788
 16       0.000829396657
 17      -0.020440887928
 18       0.008147029319
 19      -0.011126220468
 20      -0.070634888627
 21      -0.045057467726
 22       0.110192005256
 23      -0.002347368735
 24      -0.003968418995
 25      -0.068480408007
 26       0.014485886978
 27      -0.050902213187
 28       0.021091967100
 29      -0.016855896987
 30      -0.023905003573
 31      -0.003003890267
 32       0.010514714552
 33       0.020375254493
 34      -0.011479271271
 35       0.039230212950
 36       0.004526878323
 37      -0.012333555269
 38       0.004108434445
 39      -0.003148510109
 40      -0.003264035095
 41      -0.005121022089
 42       0.007774909159
 43      -0.037019664858
 44       0.024967162665
 45      -0.016546871728
 46      -0.468564167104
 47       0.075604660882
 48      -0.008288697273
 49      -0.035147338109
 50       0.021664617684
 51      -0.004258502774