[Molden Format]
[Title]
 Molden2AIM, Version 5.0.4 (02/07/2021)           Time: Mon Mar  8 15:42:48 2021

[Atoms] AU
  C      1    6        3.4557079676       -2.1272353931       -0.2205028560
  C      2    6        1.6265502272       -0.7322856960        1.0336907252
  C      3    6        5.3376771117       -3.3526346755        1.1401423038
  C      4    6        1.6771065483       -0.5607911513        3.6487176349
  C      5    6        5.3866849160       -3.1811114974        3.7480396907
  C      6    6        3.5561482401       -1.7835293987        5.0225084056
  C      7    6        3.6852075249       -1.6543050473        7.8506151947
  C      8    6        1.7037964831       -0.1392152119        9.2364665837
  O      9    8        5.3407003939       -2.7420723566        8.9920346695
  H     10    1        3.4168721303       -2.2611934644       -2.2577989082
  H     11    1        0.1619429958        0.2214043385       -0.0210779302
  H     12    1        6.7628597029       -4.4393651352        0.1624242542
  H     13    1        0.2442474868        0.5297381121        4.6081664640
  H     14    1        6.8298768414       -4.1174086086        4.8447216721
  H     15    1       -0.1747462295       -0.8901187132        8.8557707384
  H     16    1        1.7261248560        1.8229717902        8.6155547872
  H     17    1        2.0895920143       -0.2335969398       11.2468449927
[GTO]
    1    0
 S    3  1.0
    0.7161683700D+02    0.1543289700D+00
    0.1304509600D+02    0.5353281400D+00
    0.3530512200D+01    0.4446345400D+00
 S    3  1.0
    0.2941249400D+01   -0.9996723010D-01
    0.6834831000D+00    0.3995128304D+00
    0.2222899000D+00    0.7001154704D+00
 P    3  1.0
    0.2941249400D+01    0.1559162721D+00
    0.6834831000D+00    0.6076837281D+00
    0.2222899000D+00    0.3919573954D+00

    2    0
 S    3  1.0
    0.7161683700D+02    0.1543289700D+00
    0.1304509600D+02    0.5353281400D+00
    0.3530512200D+01    0.4446345400D+00
 S    3  1.0
    0.2941249400D+01   -0.9996723010D-01
    0.6834831000D+00    0.3995128304D+00
    0.2222899000D+00    0.7001154704D+00
 P    3  1.0
    0.2941249400D+01    0.1559162721D+00
    0.6834831000D+00    0.6076837281D+00
    0.2222899000D+00    0.3919573954D+00

    3    0
 S    3  1.0
    0.7161683700D+02    0.1543289700D+00
    0.1304509600D+02    0.5353281400D+00
    0.3530512200D+01    0.4446345400D+00
 S    3  1.0
    0.2941249400D+01   -0.9996723010D-01
    0.6834831000D+00    0.3995128304D+00
    0.2222899000D+00    0.7001154704D+00
 P    3  1.0
    0.2941249400D+01    0.1559162721D+00
    0.6834831000D+00    0.6076837281D+00
    0.2222899000D+00    0.3919573954D+00

    4    0
 S    3  1.0
    0.7161683700D+02    0.1543289700D+00
    0.1304509600D+02    0.5353281400D+00
    0.3530512200D+01    0.4446345400D+00
 S    3  1.0
    0.2941249400D+01   -0.9996723010D-01
    0.6834831000D+00    0.3995128304D+00
    0.2222899000D+00    0.7001154704D+00
 P    3  1.0
    0.2941249400D+01    0.1559162721D+00
    0.6834831000D+00    0.6076837281D+00
    0.2222899000D+00    0.3919573954D+00

    5    0
 S    3  1.0
    0.7161683700D+02    0.1543289700D+00
    0.1304509600D+02    0.5353281400D+00
    0.3530512200D+01    0.4446345400D+00
 S    3  1.0
    0.2941249400D+01   -0.9996723010D-01
    0.6834831000D+00    0.3995128304D+00
    0.2222899000D+00    0.7001154704D+00
 P    3  1.0
    0.2941249400D+01    0.1559162721D+00
    0.6834831000D+00    0.6076837281D+00
    0.2222899000D+00    0.3919573954D+00

    6    0
 S    3  1.0
    0.7161683700D+02    0.1543289700D+00
    0.1304509600D+02    0.5353281400D+00
    0.3530512200D+01    0.4446345400D+00
 S    3  1.0
    0.2941249400D+01   -0.9996723010D-01
    0.6834831000D+00    0.3995128304D+00
    0.2222899000D+00    0.7001154704D+00
 P    3  1.0
    0.2941249400D+01    0.1559162721D+00
    0.6834831000D+00    0.6076837281D+00
    0.2222899000D+00    0.3919573954D+00

    7    0
 S    3  1.0
    0.7161683700D+02    0.1543289700D+00
    0.1304509600D+02    0.5353281400D+00
    0.3530512200D+01    0.4446345400D+00
 S    3  1.0
    0.2941249400D+01   -0.9996723010D-01
    0.6834831000D+00    0.3995128304D+00
    0.2222899000D+00    0.7001154704D+00
 P    3  1.0
    0.2941249400D+01    0.1559162721D+00
    0.6834831000D+00    0.6076837281D+00
    0.2222899000D+00    0.3919573954D+00

    8    0
 S    3  1.0
    0.7161683700D+02    0.1543289700D+00
    0.1304509600D+02    0.5353281400D+00
    0.3530512200D+01    0.4446345400D+00
 S    3  1.0
    0.2941249400D+01   -0.9996723010D-01
    0.6834831000D+00    0.3995128304D+00
    0.2222899000D+00    0.7001154704D+00
 P    3  1.0
    0.2941249400D+01    0.1559162721D+00
    0.6834831000D+00    0.6076837281D+00
    0.2222899000D+00    0.3919573954D+00

    9    0
 S    3  1.0
    0.1307093200D+03    0.1543289687D+00
    0.2380886100D+02    0.5353281355D+00
    0.6443608300D+01    0.4446345364D+00
 S    3  1.0
    0.5033151300D+01   -0.9996722865D-01
    0.1169596100D+01    0.3995128246D+00
    0.3803890000D+00    0.7001154607D+00
 P    3  1.0
    0.5033151300D+01    0.1559162685D+00
    0.1169596100D+01    0.6076837140D+00
    0.3803890000D+00    0.3919573862D+00

   10    0
 S    3  1.0
    0.3425250910D+01    0.1543289707D+00
    0.6239137300D+00    0.5353281425D+00
    0.1688554000D+00    0.4446345419D+00

   11    0
 S    3  1.0
    0.3425250910D+01    0.1543289707D+00
    0.6239137300D+00    0.5353281425D+00
    0.1688554000D+00    0.4446345419D+00

   12    0
 S    3  1.0
    0.3425250910D+01    0.1543289707D+00
    0.6239137300D+00    0.5353281425D+00
    0.1688554000D+00    0.4446345419D+00

   13    0
 S    3  1.0
    0.3425250910D+01    0.1543289707D+00
    0.6239137300D+00    0.5353281425D+00
    0.1688554000D+00    0.4446345419D+00

   14    0
 S    3  1.0
    0.3425250910D+01    0.1543289707D+00
    0.6239137300D+00    0.5353281425D+00
    0.1688554000D+00    0.4446345419D+00

   15    0
 S    3  1.0
    0.3425250910D+01    0.1543289707D+00
    0.6239137300D+00    0.5353281425D+00
    0.1688554000D+00    0.4446345419D+00

   16    0
 S    3  1.0
    0.3425250910D+01    0.1543289707D+00
    0.6239137300D+00    0.5353281425D+00
    0.1688554000D+00    0.4446345419D+00

   17    0
 S    3  1.0
    0.3425250910D+01    0.1543289707D+00
    0.6239137300D+00    0.5353281425D+00
    0.1688554000D+00    0.4446345419D+00

[MO]
 Sym= 1A
 Ene=        -20.27123532
 Spin= Alpha
 Occup=        2.00000000
    1       -0.0000001731
    2        0.0000001287
    3       -0.0000029060
    4        0.0000023804
    5        0.0000039964
    6        0.0000013848
    7       -0.0000243975
    8       -0.0000039729
    9        0.0000015432
   10       -0.0000160200
   11        0.0000023081
   12       -0.0000250353
   13       -0.0000154725
   14        0.0000094135
   15       -0.0000190675
   16        0.0000040390
   17        0.0000398428
   18        0.0000363241
   19       -0.0000303415
   20       -0.0000592538
   21       -0.0000056836
   22        0.0000110342
   23        0.0001626164
   24       -0.0001187230
   25       -0.0000475494
   26       -0.0000266032
   27        0.0003647061
   28        0.0003943164
   29       -0.0002664288
   30        0.0001772284
   31        0.0005468606
   32       -0.0075244880
   33       -0.0047201218
   34        0.0031021221
   35       -0.0032470495
   36       -0.0000276434
   37        0.0003562794
   38        0.0003340834
   39       -0.0002086951
   40        0.0003465390
   41        0.9942394349
   42        0.0262813180
   43       -0.0041937382
   44        0.0027542578
   45       -0.0029077108
   46        0.0000008365
   47        0.0000007744
   48        0.0000097914
   49       -0.0000172425
   50       -0.0003163697
   51        0.0000304439
   52        0.0000296993
   53       -0.0002455055
 Sym= 1A
 Ene=        -11.12127602
 Spin= Alpha
 Occup=        2.00000000
    1        0.0000267730
    2       -0.0000071216
    3        0.0000000682
    4        0.0000011514
    5        0.0000150852
    6        0.0000423225
    7        0.0000471577
    8        0.0000275615
    9       -0.0000168918
   10        0.0000322543
   11        0.0000539464
   12        0.0001106803
   13       -0.0000310486
   14        0.0000279636
   15        0.0000743852
   16        0.0001735033
   17       -0.0001380064
   18        0.0000301304
   19       -0.0000248743
   20       -0.0000449122
   21        0.0003262030
   22       -0.0002783410
   23        0.0000036700
   24        0.0000047802
   25        0.0000936496
   26        0.0011269410
   27        0.0058831385
   28        0.0003624506
   29        0.0000641713
   30        0.0041234877
   31       -0.9925061545
   32       -0.0332209738
   33       -0.0005327738
   34        0.0003629381
   35       -0.0002389811
   36        0.0013354009
   37        0.0055360495
   38        0.0029973500
   39       -0.0022685952
   40       -0.0018233287
   41       -0.0001336183
   42        0.0059938890
   43       -0.0012288124
   44        0.0008067666
   45       -0.0008508454
   46        0.0000072372
   47        0.0000072123
   48        0.0000028838
   49        0.0001042782
   50        0.0003232084
   51        0.0001393295
   52        0.0001344725
   53        0.0000785999
 Sym= 1A
 Ene=        -11.04903821
 Spin= Alpha
 Occup=        2.00000000
    1        0.0000105508
    2        0.0000035069
    3        0.0000000438
    4        0.0000003602
    5        0.0000045862
    6       -0.0002079916
    7       -0.0000655231
    8       -0.0000000480
    9       -0.0000036564
   10       -0.0000426868
   11       -0.0000281942
   12       -0.0000104163
   13       -0.0000007634
   14        0.0000000037
   15       -0.0000065689
   16       -0.0015359639
   17       -0.0000325632
   18       -0.0000531422
   19        0.0000253024
   20       -0.0001772148
   21       -0.0004425634
   22       -0.0000656041
   23        0.0000171697
   24       -0.0000167558
   25       -0.0000579233
   26       -0.0018282505
   27        0.0001322070
   28       -0.0000213137
   29        0.0000146649
   30       -0.0000100880
   31        0.0023067609
   32       -0.0060097072
   33        0.0029994996
   34       -0.0023057869
   35       -0.0022470945
   36        0.9918820418
   37        0.0382112127
   38        0.0000302396
   39       -0.0000372326
   40       -0.0000666390
   41       -0.0000228892
   42        0.0003024138
   43       -0.0001759156
   44        0.0001320729
   45        0.0000839122
   46        0.0000003784
   47        0.0000065814
   48        0.0000014288
   49       -0.0001360564
   50       -0.0000134507
   51       -0.0070091851
   52       -0.0070079983
   53       -0.0070262855
 Sym= 1A
 Ene=        -11.03955079
 Spin= Alpha
 Occup=        2.00000000
    1       -0.9848702561
    2       -0.0356844548
    3       -0.0000265798
    4       -0.0000616436
    5       -0.0010218590
    6       -0.0491341600
    7        0.0047529820
    8        0.0031127875
    9       -0.0024018123
   10       -0.0024864514
   11       -0.0397434787
   12        0.0056349114
   13       -0.0032004685
   14        0.0020854294
   15       -0.0022941351
   16        0.0897742401
   17        0.0030677388
   18       -0.0000219286
   19       -0.0000120481
   20       -0.0003469152
   21        0.0095693442
   22        0.0000600301
   23        0.0000816126
   24       -0.0000770830
   25       -0.0002435254
   26        0.0488894979
   27        0.0011535826
   28        0.0002571149
   29       -0.0001840154
   30       -0.0000209790
   31        0.0000884268
   32       -0.0002251019
   33        0.0000037302
   34        0.0000097755
   35        0.0001581745
   36        0.0002356610
   37        0.0000160540
   38       -0.0000018771
   39        0.0000024789
   40        0.0000139222
   41        0.0000001737
   42        0.0000068202
   43       -0.0000037039
   44        0.0000023909
   45       -0.0000030562
   46        0.0067870239
   47        0.0002501152
   48        0.0001751757
   49       -0.0005269603
   50        0.0000183003
   51       -0.0000055496
   52       -0.0000056748
   53       -0.0000099106
 Sym= 1A
 Ene=        -11.03925495
 Spin= Alpha
 Occup=        2.00000000
    1       -0.0938455539
    2       -0.0033073570
    3       -0.0001635966
    4        0.0001220985
    5        0.0000774391
    6       -0.0627069030
    7        0.0054615739
    8        0.0004263065
    9        0.0000287657
   10        0.0041742958
   11        0.0091133358
   12        0.0010179898
   13       -0.0004720601
   14        0.0003237548
   15       -0.0001344982
   16       -0.9730189594
   17       -0.0343343051
   18       -0.0002528578
   19        0.0002351790
   20        0.0006824817
   21        0.0053304891
   22        0.0010265511
   23       -0.0005343555
   24        0.0004007772
   25        0.0002808128
   26       -0.1584602683
   27        0.0012066624
   28       -0.0031306862
   29        0.0020441717
   30       -0.0022058492
   31       -0.0005428331
   32        0.0007672763
   33       -0.0000514488
   34       -0.0000124217
   35       -0.0006244291
   36       -0.0018345242
   37       -0.0000737953
   38        0.0000252088
   39       -0.0000268193
   40       -0.0001156394
   41       -0.0000065024
   42        0.0000327749
   43       -0.0000066349
   44        0.0000039121
   45       -0.0000111538
   46        0.0007447209
   47        0.0003390392
   48        0.0000109162
   49        0.0067404327
   50        0.0000607948
   51       -0.0000005545
   52       -0.0000013556
   53        0.0000679141
 Sym= 1A
 Ene=        -11.03839995
 Spin= Alpha
 Occup=        2.00000000
    1        0.0359757732
    2        0.0014008718
    3       -0.0000758003
    4        0.0000460431
    5       -0.0000974943
    6       -0.0271911436
    7        0.0001537037
    8       -0.0001645428
    9        0.0001819431
   10        0.0008249511
   11        0.0002170155
   12       -0.0005671294
   13        0.0001324194
   14       -0.0001100155
   15       -0.0002054079
   16       -0.1592845971
   17       -0.0128080175
   18       -0.0033429013
   19        0.0021897734
   20       -0.0022708912
   21        0.0809545982
   22       -0.0042253829
   23        0.0030843060
   24       -0.0023534668
   25       -0.0021333008
   26        0.9747724481
   27        0.0365605844
   28       -0.0006813556
   29        0.0003796815
   30       -0.0012510988
   31        0.0020961981
   32       -0.0059885959
   33        0.0000754816
   34        0.0002682549
   35        0.0041143235
   36        0.0015971556
   37        0.0002483589
   38        0.0000128452
   39       -0.0000057956
   40        0.0000259052
   41       -0.0000227500
   42        0.0003239110
   43       -0.0000919060
   44        0.0000500164
   45       -0.0001967855
   46       -0.0003030694
   47        0.0000839757
   48       -0.0000633119
   49        0.0011706260
   50       -0.0004684896
   51       -0.0001022844
   52       -0.0001059110
   53       -0.0000965613
 Sym= 1A
 Ene=        -11.03665797
 Spin= Alpha
 Occup=        2.00000000
    1        0.0198854587
    2        0.0024159368
    3       -0.0016916933
    4        0.0012308582
    5        0.0004112843
    6       -0.3728409048
    7       -0.0143049291
    8       -0.0005461706
    9        0.0003460621
   10       -0.0005149185
   11        0.1792273483
   12       -0.0002383845
   13       -0.0000799060
   14       -0.0002503465
   15       -0.0038827132
   16        0.0412524783
   17        0.0050597490
   18        0.0002701657
   19       -0.0003061919
   20       -0.0014444455
   21        0.8972701028
   22        0.0324439790
   23       -0.0010977146
   24        0.0008079407
   25        0.0003963185
   26       -0.0781478726
   27       -0.0097894117
   28       -0.0026227865
   29        0.0020364145
   30        0.0022502404
   31        0.0001778018
   32        0.0006222113
   33       -0.0001327854
   34        0.0000635819
   35       -0.0003929623
   36        0.0002566618
   37       -0.0000787400
   38       -0.0000252015
   39        0.0000215993
   40        0.0000480271
   41       -0.0000015683
   42        0.0000508713
   43       -0.0000040406
   44        0.0000050313
   45        0.0000259348
   46       -0.0002412030
   47        0.0025186101
   48       -0.0011162065
   49       -0.0004258061
   50       -0.0061683886
   51        0.0000117363
   52        0.0000120475
   53        0.0000006492
 Sym= 1A
 Ene=        -11.03654346
 Spin= Alpha
 Occup=        2.00000000
    1        0.0479865419
    2        0.0086993929
    3       -0.0027671570
    4        0.0021388166
    5        0.0022580668
    6       -0.9150809566
    7       -0.0345385413
    8       -0.0009378219
    9        0.0006096048
   10       -0.0006885049
   11       -0.0397971788
   12        0.0006900043
   13        0.0002083424
   14       -0.0000012501
   15        0.0018508227
   16        0.0491755207
   17        0.0083734485
   18        0.0000076759
   19       -0.0003434485
   20       -0.0042623187
   21       -0.3747897217
   22       -0.0135125136
   23        0.0002321629
   24       -0.0001702179
   25       -0.0000776061
   26        0.0116493478
   27        0.0025503476
   28        0.0013763171
   29       -0.0010356121
   30       -0.0007647674
   31       -0.0001604834
   32       -0.0000512623
   33        0.0000271431
   34       -0.0000177836
   35        0.0000186640
   36       -0.0002731347
   37        0.0000286967
   38        0.0000025880
   39       -0.0000050693
   40       -0.0000382743
   41        0.0000011801
   42       -0.0000260415
   43       -0.0000004847
   44       -0.0000000863
   45       -0.0000047553
   46       -0.0003938263
   47        0.0063684000
   48        0.0003259871
   49       -0.0003971215
   50        0.0026359814
   51        0.0000026433
   52        0.0000030323
   53        0.0000083033
 Sym= 1A
 Ene=        -11.03568188
 Spin= Alpha
 Occup=        2.00000000
    1        0.0402088053
    2        0.0088733940
    3        0.0030526655
    4       -0.0019634114
    5        0.0025139883
    6       -0.0298538747
    7       -0.0016279198
    8       -0.0001910559
    9        0.0001473070
   10        0.0001511435
   11       -0.9741624515
   12       -0.0376687500
   13        0.0009824264
   14       -0.0008043538
   15       -0.0013699472
   16       -0.0072878472
   17        0.0002431875
   18        0.0002017663
   19       -0.0001569932
   20       -0.0001774256
   21        0.1792859735
   22        0.0139773508
   23       -0.0004012742
   24       -0.0000734490
   25       -0.0045201085
   26       -0.0181623142
   27       -0.0022003971
   28       -0.0006471252
   29        0.0004896136
   30        0.0003922873
   31       -0.0000416825
   32        0.0002144693
   33        0.0000003281
   34       -0.0000110127
   35       -0.0001390740
   36        0.0000016499
   37       -0.0000123862
   38       -0.0000007330
   39        0.0000011057
   40        0.0000076128
   41       -0.0000021319
   42        0.0000114730
   43        0.0000101341
   44       -0.0000075516
   45       -0.0000050217
   46       -0.0003893287
   47        0.0002893198
   48        0.0067591965
   49        0.0000889268
   50       -0.0013454636
   51        0.0000013296
   52        0.0000013578
   53        0.0000007116
 Sym= 1A
 Ene=         -1.32965508
 Spin= Alpha
 Occup=        2.00000000
    1       -0.0008362561
    2        0.0019231173
    3        0.0001123314
    4       -0.0000199567
    5        0.0007501897
    6       -0.0012318473
    7        0.0029563509
    8        0.0004040977
    9       -0.0001837764
   10        0.0012943157
   11       -0.0016923455
   12        0.0040509775
   13       -0.0003442802
   14        0.0003936987
   15        0.0019014146
   16       -0.0048355021
   17        0.0117020483
   18        0.0041178552
   19       -0.0026491254
   20        0.0034285995
   21       -0.0084962037
   22        0.0198980121
   23       -0.0049960268
   24        0.0040782256
   25        0.0069107126
   26       -0.0238382100
   27        0.0566745010
   28        0.0038657774
   29       -0.0005552128
   30        0.0280609653
   31       -0.1295107561
   32        0.2934222838
   33        0.1127218137
   34       -0.0742248846
   35        0.0759036766
   36       -0.0218577691
   37        0.0544996703
   38        0.0206475769
   39       -0.0156279064
   40       -0.0122319052
   41       -0.2134427255
   42        0.7420096329
   43       -0.1237099017
   44        0.0811889701
   45       -0.0864982517
   46        0.0001934500
   47        0.0002823091
   48        0.0004185371
   49        0.0020388693
   50        0.0071006825
   51        0.0056993671
   52        0.0056794243
   53        0.0093725883
 Sym= 1A
 Ene=         -1.10588838
 Spin= Alpha
 Occup=        2.00000000
    1       -0.1004750343
    2        0.2525106401
    3        0.0001926902
    4        0.0046535893
    5        0.0605280887
    6       -0.1023512719
    7        0.2568020255
    8        0.0433026085
    9       -0.0279891319
   10        0.0338582978
   11       -0.1002358789
   12        0.2513072857
   13       -0.0421581532
   14        0.0322613625
   15        0.0303386963
   16       -0.1070648931
   17        0.2698888615
   18        0.0445744860
   19       -0.0335640295
   20       -0.0248389965
   21       -0.1028284191
   22        0.2584646639
   23       -0.0459995160
   24        0.0302733791
   25       -0.0292100171
   26       -0.1105398182
   27        0.2787890100
   28       -0.0037957591
   29       -0.0017145013
   30       -0.0554503148
   31       -0.0171593129
   32        0.0488363964
   33       -0.0261578893
   34        0.0142016377
   35       -0.0561224005
   36       -0.0112192860
   37        0.0298423454
   38        0.0023839784
   39       -0.0023628165
   40       -0.0085992380
   41        0.0267433862
   42       -0.0995685932
   43        0.0083861259
   44       -0.0062823255
   45       -0.0040784311
   46        0.0440524606
   47        0.0450405186
   48        0.0436320013
   49        0.0491374705
   50        0.0435979534
   51        0.0078499636
   52        0.0079166602
   53        0.0031099496
 Sym= 1A
 Ene=         -0.99138141
 Spin= Alpha
 Occup=        2.00000000
    1       -0.1120710828
    2        0.2974794926
    3        0.0164238489
    4       -0.0090255773
    5        0.0329878049
    6       -0.0463787813
    7        0.1221395351
    8        0.0440313092
    9       -0.0362145870
   10       -0.0634690589
   11       -0.0878397681
   12        0.2323049432
   13       -0.0427687506
   14        0.0273709464
   15       -0.0369729489
   16        0.0654677912
   17       -0.1756509506
   18       -0.0371597767
   19        0.0201339667
   20       -0.0784526110
   21        0.0085388592
   22       -0.0244547770
   23        0.0359578152
   24       -0.0320278533
   25       -0.0828975028
   26        0.1133940487
   27       -0.3030706243
   28        0.0324055075
   29       -0.0252536482
   30       -0.0296658925
   31        0.0739914587
   32       -0.2097165814
   33        0.1047795515
   34       -0.0684993891
   35        0.0757418565
   36        0.1096030643
   37       -0.3037504183
   38       -0.0171813305
   39        0.0148203333
   40        0.0325467580
   41       -0.0579300907
   42        0.2255970773
   43        0.0091462032
   44       -0.0059552240
   45        0.0066840867
   46        0.0745320476
   47        0.0299425360
   48        0.0577499083
   49       -0.0557254218
   50       -0.0056181645
   51       -0.0805201841
   52       -0.0806938341
   53       -0.0654446590
 Sym= 1A
 Ene=         -0.96736446
 Spin= Alpha
 Occup=        2.00000000
    1       -0.0438606872
    2        0.1177655411
    3       -0.1002239452
    4        0.0714400489
    5        0.0056475823
    6       -0.1412499382
    7        0.3785298408
    8        0.0086673519
    9       -0.0030697258
   10        0.0386981510
   11        0.0971288806
   12       -0.2602172779
   13       -0.0263090716
   14        0.0112334263
   15       -0.0936043413
   16       -0.0989920009
   17        0.2658141662
   18       -0.0297071899
   19        0.0137861341
   20       -0.0915228465
   21        0.1429732175
   22       -0.3834546543
   23        0.0112283003
   24       -0.0051737810
   25        0.0350440459
   26        0.0469065736
   27       -0.1261166800
   28       -0.1048471193
   29        0.0746711591
   30        0.0047627955
   31        0.0029712373
   32       -0.0093192632
   33       -0.0098725727
   34        0.0106560185
   35        0.0470061794
   36       -0.0215641267
   37        0.0599023109
   38        0.0009863294
   39       -0.0008065397
   40       -0.0012396488
   41       -0.0106545651
   42        0.0421233164
   43       -0.0084462697
   44        0.0074862489
   45        0.0191831100
   46        0.0321865269
   47        0.1036770729
   48       -0.0702727243
   49        0.0756942445
   50       -0.1021388370
   51        0.0167709163
   52        0.0168130167
   53        0.0163871170
 Sym= 1A
 Ene=         -0.94275913
 Spin= Alpha
 Occup=        2.00000000
    1        0.0827853261
    2       -0.2250854953
    3       -0.0353765310
    4        0.0243543207
    5       -0.0089295226
    6       -0.0054389979
    7        0.0141994120
    8       -0.0334827644
    9        0.0299962530
   10        0.0792827714
   11        0.0729055064
   12       -0.1977010670
   13        0.0296884807
   14       -0.0173352579
   15        0.0467177019
   16       -0.0790549668
   17        0.2147441444
   18        0.0302877181
   19       -0.0207544237
   20        0.0090514561
   21       -0.0216902328
   22        0.0581035343
   23       -0.0357244213
   24        0.0310248494
   25        0.0724259198
   26       -0.0749936584
   27        0.2029644876
   28       -0.0114025392
   29        0.0037136193
   30       -0.0550752739
   31        0.0428015346
   32       -0.1193404854
   33        0.1078730528
   34       -0.0833991041
   35       -0.0871129884
   36        0.1717597334
   37       -0.4853053734
   38       -0.0126354342
   39        0.0096762565
   40        0.0066886791
   41       -0.0299458146
   42        0.1193941684
   43        0.0284580409
   44       -0.0228408088
   45       -0.0338535628
   46       -0.0668676776
   47        0.0032181646
   48       -0.0583738924
   49        0.0498422743
   50        0.0194060845
   51       -0.1323632467
   52       -0.1322824242
   53       -0.1325375750
 Sym= 1A
 Ene=         -0.80156111
 Spin= Alpha
 Occup=        2.00000000
    1       -0.1098583128
    2        0.3190852515
    3       -0.0237480534
    4        0.0111318414
    5       -0.0717796048
    6        0.0236814597
    7       -0.0670977576
    8        0.0797792526
    9       -0.0694080026
   10       -0.1626727838
   11        0.0499581361
   12       -0.1428591594
   13       -0.0850161445
   14        0.0489263955
   15       -0.1426715394
   16        0.0775479858
   17       -0.2229322771
   18        0.0719724826
   19       -0.0430536365
   20        0.1003731425
   21        0.0588829209
   22       -0.1687168222
   23       -0.0634452747
   24        0.0554383407
   25        0.1329062509
   26       -0.0870496374
   27        0.2552858621
   28        0.0245048594
   29       -0.0048946073
   30        0.1593356451
   31       -0.0808621205
   32        0.2536676853
   33       -0.0148943754
   34       -0.0036819281
   35       -0.1829362917
   36        0.0491097280
   37       -0.1468464505
   38        0.0395467813
   39       -0.0327312850
   40       -0.0601254651
   41        0.0437442198
   42       -0.1877462624
   43       -0.0229788276
   44        0.0090487790
   45       -0.0933311584
   46        0.1577602708
   47       -0.0286221974
   48       -0.0628073164
   49       -0.1008900414
   50       -0.0630570655
   51       -0.0567333077
   52       -0.0566038515
   53       -0.0807238280
 Sym= 1A
 Ene=         -0.77820025
 Spin= Alpha
 Occup=        2.00000000
    1       -0.0117633532
    2        0.0348226157
    3        0.1861682839
    4       -0.1321547166
    5       -0.0036226629
    6        0.1027336120
    7       -0.3005525984
    8        0.0160586530
    9       -0.0021802240
   10        0.1160619328
   11       -0.0930127323
   12        0.2720233731
   13       -0.0091343514
   14       -0.0051186583
   15       -0.1466148104
   16       -0.0907482724
   17        0.2667816723
   18        0.0077191208
   19        0.0066329593
   20        0.1531443833
   21        0.1023339436
   22       -0.2998709301
   23       -0.0120801379
   24       -0.0013522619
   25       -0.1256245873
   26       -0.0088093764
   27        0.0264114138
   28       -0.1918604056
   29        0.1364244706
   30        0.0063588208
   31       -0.0073893100
   32        0.0251674774
   33       -0.0155111686
   34        0.0104216835
   35       -0.0068446138
   36        0.0298419145
   37       -0.0917781053
   38        0.0132315453
   39       -0.0121658420
   40       -0.0370662599
   41       -0.0103229410
   42        0.0451764014
   43       -0.0055344615
   44        0.0058042310
   45        0.0245141594
   46        0.0183308084
   47       -0.1570536322
   48        0.1419449133
   49        0.1427958350
   50       -0.1535211055
   51       -0.0276356073
   52       -0.0271499339
   53       -0.0492680032
 Sym= 1A
 Ene=         -0.70364627
 Spin= Alpha
 Occup=        2.00000000
    1       -0.0397438791
    2        0.1165447741
    3        0.0023761196
    4        0.0026597256
    5        0.0547427790
    6        0.0511484426
    7       -0.1632139749
    8        0.1606941790
    9       -0.1113007614
   10        0.0316472311
   11        0.0505373805