[Molden Format]
[Title]
 Molden file created by orca_2mkl for BaseName=1

[Atoms] AU
C    1   6          3.4557079676        -2.1272353931        -0.2205028560 
C    2   6          1.6265502272        -0.7322856960         1.0336907252 
C    3   6          5.3376771117        -3.3526346755         1.1401423038 
C    4   6          1.6771065483        -0.5607911513         3.6487176349 
C    5   6          5.3866849160        -3.1811114974         3.7480396907 
C    6   6          3.5561482401        -1.7835293987         5.0225084056 
C    7   6          3.6852075249        -1.6543050473         7.8506151947 
C    8   6          1.7037964831        -0.1392152119         9.2364665837 
O    9   8          5.3407003939        -2.7420723566         8.9920346695 
H   10   1          3.4168721303        -2.2611934644        -2.2577989082 
H   11   1          0.1619429958         0.2214043385        -0.0210779302 
H   12   1          6.7628597029        -4.4393651352         0.1624242542 
H   13   1          0.2442474868         0.5297381121         4.6081664640 
H   14   1          6.8298768414        -4.1174086086         4.8447216721 
H   15   1         -0.1747462295        -0.8901187132         8.8557707384 
H   16   1          1.7261248560         1.8229717902         8.6155547872 
H   17   1          2.0895920143        -0.2335969398        11.2468449927 
[GTO]
  1 0
s   3 1.0 
        6.8168449720        -0.1802384934
        0.4139511799         0.2192275595
        0.1589218664         0.0821929171
p   3 1.0 
        2.4273625586         0.7013433317
        0.6229747924         0.4466586163
        0.2115089320         0.0863434569

  2 0
s   3 1.0 
        6.8168449720        -0.1802384934
        0.4139511799         0.2192275595
        0.1589218664         0.0821929171
p   3 1.0 
        2.4273625586         0.7013433317
        0.6229747924         0.4466586163
        0.2115089320         0.0863434569

  3 0
s   3 1.0 
        6.8168449720        -0.1802384934
        0.4139511799         0.2192275595
        0.1589218664         0.0821929171
p   3 1.0 
        2.4273625586         0.7013433317
        0.6229747924         0.4466586163
        0.2115089320         0.0863434569

  4 0
s   3 1.0 
        6.8168449720        -0.1802384934
        0.4139511799         0.2192275595
        0.1589218664         0.0821929171
p   3 1.0 
        2.4273625586         0.7013433317
        0.6229747924         0.4466586163
        0.2115089320         0.0863434569

  5 0
s   3 1.0 
        6.8168449720        -0.1802384934
        0.4139511799         0.2192275595
        0.1589218664         0.0821929171
p   3 1.0 
        2.4273625586         0.7013433317
        0.6229747924         0.4466586163
        0.2115089320         0.0863434569

  6 0
s   3 1.0 
        6.8168449720        -0.1802384934
        0.4139511799         0.2192275595
        0.1589218664         0.0821929171
p   3 1.0 
        2.4273625586         0.7013433317
        0.6229747924         0.4466586163
        0.2115089320         0.0863434569

  7 0
s   3 1.0 
        6.8168449720        -0.1802384934
        0.4139511799         0.2192275595
        0.1589218664         0.0821929171
p   3 1.0 
        2.4273625586         0.7013433317
        0.6229747924         0.4466586163
        0.2115089320         0.0863434569

  8 0
s   3 1.0 
        6.8168449720        -0.1802384934
        0.4139511799         0.2192275595
        0.1589218664         0.0821929171
p   3 1.0 
        2.4273625586         0.7013433317
        0.6229747924         0.4466586163
        0.2115089320         0.0863434569

  9 0
s   3 1.0 
       13.3610161452        -0.2985654859
        0.8113443126         0.3631509651
        0.3114868582         0.1361527594
p   3 1.0 
        4.7576306148         1.6264876173
        1.2210305931         1.0358474598
        0.4145575068         0.2002393937

 10 0
s   3 1.0 
        3.2077163232         0.2636419974
        0.5843012458         0.2549815803
        0.1581359918         0.0794659232

 11 0
s   3 1.0 
        3.2077163232         0.2636419974
        0.5843012458         0.2549815803
        0.1581359918         0.0794659232

 12 0
s   3 1.0 
        3.2077163232         0.2636419974
        0.5843012458         0.2549815803
        0.1581359918         0.0794659232

 13 0
s   3 1.0 
        3.2077163232         0.2636419974
        0.5843012458         0.2549815803
        0.1581359918         0.0794659232

 14 0
s   3 1.0 
        3.2077163232         0.2636419974
        0.5843012458         0.2549815803
        0.1581359918         0.0794659232

 15 0
s   3 1.0 
        3.2077163232         0.2636419974
        0.5843012458         0.2549815803
        0.1581359918         0.0794659232

 16 0
s   3 1.0 
        3.2077163232         0.2636419974
        0.5843012458         0.2549815803
        0.1581359918         0.0794659232

 17 0
s   3 1.0 
        3.2077163232         0.2636419974
        0.5843012458         0.2549815803
        0.1581359918         0.0794659232

[5D]
[7F]
[9G]
[MO]
 Sym=     1a
 Ene= -1.67507268449582E+00
 Spin= Alpha
 Occup= 2.000000
  1       0.253374459451
  2       0.002036076887
  3       0.007450772674
  4       0.112409056378
  5       0.261385515397
  6       0.078887867754
  7      -0.050688692029
  8       0.065594240021
  9       0.262641798130
 10      -0.076592442216
 11       0.059279686497
 12       0.063624365760
 13       0.309164034873
 14       0.090947941145
 15      -0.066311338339
 16      -0.023241876206
 17       0.324738965460
 18      -0.094898764026
 19       0.066012714422
 20      -0.014805664413
 21       0.399873028036
 22       0.013244572367
 23      -0.012806165866
 24      -0.041645088583
 25       0.369071368930
 26       0.072548950322
 27      -0.051444690094
 28       0.002486179764
 29       0.168545029329
 30       0.048929532636
 31      -0.037668031432
 32      -0.036956293541
 33       0.349826763574
 34      -0.098833629886
 35       0.063899737483
 36      -0.081388574461
 37       0.065857732036
 38       0.069068839665
 39       0.069011181861
 40       0.098022488328
 41       0.108284438719
 42       0.068025535332
 43       0.068113933281
 44       0.066605134683
 Sym=     1a
 Ene= -1.57975267455838E+00
 Spin= Alpha
 Occup= 2.000000
  1      -0.280626844256
  2       0.000111606175
  3      -0.008639099707
  4      -0.108148282288
  5      -0.270076916273
  6      -0.080818522527
  7       0.053647164116
  8      -0.045402041657
  9      -0.255083497904
 10       0.080317896221
 11      -0.059437611377
 12      -0.032083289508
 13      -0.204525574328
 14      -0.056684941063
 15       0.047414334609
 16       0.091698829573
 17      -0.153623102658
 18       0.057483768406
 19      -0.031272443392
 20       0.120063435201
 21      -0.058496561238
 22       0.034163578085
 23      -0.008672934578
 24       0.198244615337
 25       0.398787190646
 26       0.138084280918
 27      -0.087386085899
 28       0.138508749837
 29       0.185565018487
 30       0.071977030660
 31      -0.052056019065
 32      -0.011214328740
 33       0.531509845479
 34      -0.151376741708
 35       0.100073781801
 36      -0.096514789977
 37      -0.080658950506
 38      -0.076816484488
 39      -0.071141270095
 40      -0.040338258000
 41      -0.005725437288
 42       0.061055021344
 43       0.060602532668
 44       0.091517417706
 Sym=     1a
 Ene= -1.31266961689879E+00
 Spin= Alpha
 Occup= 2.000000
  1       0.188727639920
  2       0.061523523067
  3      -0.041850732177
  4       0.021912615021
  5      -0.045167164908
  6       0.055443175403
  7      -0.047026629605
  8      -0.097871179938
  9       0.273995150228
 10      -0.018143099864
 11       0.013626357572
 12       0.009909702558
 13      -0.318638394901
 14      -0.000409199968
 15      -0.008445279557
 16      -0.110461073693
 17       0.175969782392
 18       0.033944524570
 19      -0.029714452664
 20      -0.071167063546
 21      -0.195258658042
 22       0.165960270398
 23      -0.121825867153
 24      -0.053186459547
 25      -0.118261802967
 26       0.272546380505
 27      -0.185725665810
 28       0.100091963432
 29      -0.427222189230
 30       0.007515518211
 31       0.001584927816
 32       0.087411413419
 33       0.333452628502
 34      -0.044938887779
 35       0.026831514717
 36      -0.066208212111
 37       0.080315292054
 38      -0.027787884177
 39       0.119171608360
 40      -0.201179462478
 41       0.091469254382
 42      -0.219351070122
 43      -0.220373987192
 44      -0.149367001891
 Sym=     1a
 Ene= -1.23760320655582E+00
 Spin= Alpha
 Occup= 2.000000
  1      -0.340499547791
  2       0.115859884844
  3      -0.081222740917
  4       0.010692796669
  5      -0.432554104147
  6      -0.019054357009
  7       0.018470404550
  8       0.062928141968
  9       0.090121005165
 10       0.084963985149
 11      -0.045921181821
 12       0.180376431481
 13      -0.081325468588
 14       0.098772373926
 15      -0.054920338239
 16       0.190229461291
 17       0.429954207416
 18      -0.030326872486
 19       0.026456728850
 20       0.063164890388
 21       0.353064095296
 22       0.108303482198
 23      -0.076496956165
 24       0.003294690470
 25       0.015708164555
 26      -0.034082414052
 27       0.006472104668
 28      -0.228308551486
 29      -0.091809450630
 30      -0.024816843088
 31       0.014617493130
 32      -0.038986062359
 33      -0.189012116845
 34       0.058753543733
 35      -0.045066921508
 36      -0.042618763309
 37      -0.168732418296
 38      -0.215145622982
 39       0.042272740839
 40      -0.046668784741
 41       0.203010291889
 42      -0.028834252085
 43      -0.028350626608
 44      -0.070234003713
 Sym=     1a
 Ene= -1.19401765643440E+00
 Spin= Alpha
 Occup= 2.000000
  1      -0.220464268455
  2      -0.142418800723
  3       0.102320355091
  4       0.018137460150
  5       0.202932428536
  6      -0.060920069464
  7       0.053758348471
  8       0.133991436154
  9      -0.391485522800
 10      -0.004491473385
 11       0.007108349591
 12       0.049684441889
 13       0.323972983759
 14       0.010001410970
 15      -0.012119986268
 16      -0.062765835842
 17      -0.082698434052
 18      -0.075539580310
 19       0.067253723770
 20       0.174171000006
 21       0.199899270163
 22      -0.034460959941
 23       0.021182356460
 24      -0.039827674960
 25      -0.046125888131
 26       0.168259767005
 27      -0.129261143209
 28      -0.125297324924
 29      -0.446496360383
 30      -0.005609519576
 31       0.002759081803
 32      -0.018751813260
 33       0.142885410778
 34       0.008759777055
 35      -0.011789398852
 36      -0.071610941968
 37      -0.119056084914
 38       0.098579744055
 39      -0.206621528938
 40       0.116707030148
 41      -0.030147131506
 42      -0.202542471733
 43      -0.202045806282
 44      -0.218470947738
 Sym=     1a
 Ene= -9.85828168150672E-01
 Spin= Alpha
 Occup= 2.000000
  1      -0.372153953976
  2       0.020481381749
  3      -0.000555958679
  4       0.175963080035
  5       0.074710627187
  6      -0.094972346652
  7       0.088291067591
  8       0.265047039770
  9       0.115352597690
 10       0.104888421828
 11      -0.054484286554
 12       0.250205584440
 13       0.193980336137
 14      -0.087349446142
 15       0.046018536116
 16      -0.200936261219
 17       0.174290264268
 18       0.073482270383
 19      -0.069051660004
 20      -0.215572298368
 21      -0.267279437758
 22      -0.014158114895
 23      -0.010575818065
 24      -0.262854479390
 25      -0.207364070658
 26       0.043210744032
 27      -0.006842955849
 28       0.306196104565
 29       0.124469369305
 30      -0.020304021850
 31       0.024163460553
 32       0.125249191320
 33       0.151485241410
 34      -0.021445649295
 35       0.023417829113
 36       0.104556100638
 37      -0.292755239476
 38       0.021690802225
 39       0.047971604600
 40       0.095863624775
 41       0.068297829586
 42       0.051655634017
 43       0.050789043006
 44       0.136631994903
 Sym=     1a
 Ene= -9.42647109366293E-01
 Spin= Alpha
 Occup= 2.000000
  1      -0.004500986504
  2      -0.271336067521
  3       0.191433769332
  4      -0.009587806227
  5       0.285706651921
  6      -0.017882202691
  7      -0.003498868581
  8      -0.204107584690
  9      -0.280361944245
 10      -0.000321584830
 11       0.016441478575
 12       0.205152606593
 13      -0.296695574466
 14       0.002064656459
 15      -0.016672880006
 16      -0.192582852110
 17       0.301705680177
 18       0.019990489418
 19       0.001214641669
 20       0.194819599519
 21      -0.007335192738
 22       0.272426873781
 23      -0.192674698586
 24       0.004055330234
 25      -0.030699194815
 26      -0.002938481623
 27       0.000510935692
 28      -0.021587039325
 29       0.175060637798
 30      -0.044277707378
 31       0.039016433151
 32       0.101002692574
 33      -0.129439339825
 34       0.015509063336
 35      -0.014468735040
 36      -0.045144495308
 37      -0.000947261474
 38       0.218020258547
 39      -0.208627741557
 40      -0.207310343092
 41       0.220693526774
 42       0.081523364009
 43       0.080290655018
 44       0.134239323723
 Sym=     1a
 Ene= -9.03656140735665E-01
 Spin= Alpha
 Occup= 2.000000
  1       0.050084327858
  2       0.003612450209
  3       0.014689646116
  4       0.217713327912
  5      -0.148988346810
  6       0.263975171344
  7      -0.180952223905
  8       0.075997856252
  9      -0.151761746225
 10      -0.258163733200
 11       0.187293151660
 12       0.055645499477
 13      -0.097108368705
 14       0.277004112468
 15      -0.198766642665
 16      -0.032391051912
 17      -0.112729899007
 18      -0.270350663186
 19       0.187523394863
 20      -0.051297593970
 21       0.094874540069
 22      -0.014778112027
 23      -0.011394914189
 24      -0.277503274946
 25      -0.083659438533
 26       0.010989861954
 27       0.003443864820
 28       0.145895163711
 29       0.075679797357
 30       0.016438806349
 31      -0.003722317622
 32       0.105504514136
 33       0.063983557658
 34      -0.026851127118
 35       0.025556231137
 36       0.083708748143
 37      -0.111669869943
 38      -0.274901009100
 39      -0.270576361975
 40      -0.251883969609
 41      -0.246481038080
 42       0.007622819712
 43       0.005898859686
 44       0.106583127458
 Sym=     1a
 Ene= -7.48394610667048E-01
 Spin= Alpha
 Occup= 2.000000
  1       0.118496905906
  2       0.089424275511
  3      -0.077864242651
  4      -0.183700014173
  5      -0.142317990262
  6      -0.005845352830
  7       0.008598732659
  8       0.055373621459
  9      -0.090113856193
 10      -0.053606490132
 11       0.026033537673
 12      -0.151037980502
 13       0.122640652503
 14      -0.076957652591
 15       0.061660036046
 16       0.087693961394
 17       0.034753429584
 18      -0.021866610473
 19       0.033200067796
 20       0.223782923318
 21       0.032978060565
 22       0.063735626166
 23      -0.054989047763
 24      -0.127365108248
 25      -0.378361139275
 26       0.193923689105
 27      -0.145442700720
 28      -0.101696113611
 29       0.106134616622
 30      -0.358150818716
 31       0.268337920354
 32       0.171143030582
 33       0.261517607303
 34       0.211512753481
 35      -0.153237680876
 36      -0.039939192789
 37       0.196824765994
 38      -0.087856843892
 39      -0.029682538072
 40       0.169339561919
 41       0.089779970094
 42       0.200701338356
 43       0.203233314737
 44       0.116465738967
 Sym=     1a
 Ene= -6.82255226702172E-01
 Spin= Alpha
 Occup= 2.000000
  1       0.081818598985
  2      -0.261324761918
  3       0.172346940453
  4      -0.161915205909
  5      -0.079674819830
  6       0.131429548497
  7      -0.114697193649
  8      -0.274142479527
  9      -0.113790716403
 10       0.090997217849
 11      -0.040392205789
 12       0.302914389322
 13       0.049253394117
 14       0.098258001143
 15      -0.041524728172
 16       0.350840002317
 17       0.131957234243
 18       0.165115505692
 19      -0.130204039860
 20      -0.170802766376
 21      -0.029486807432
 22      -0.241969706531
 23       0.160745056144
 24      -0.143270704636
 25      -0.107003784661
 26      -0.126701770621
 27       0.100384450296
 28       0.125545845447
 29      -0.042835507714
 30       0.047044615932
 31      -0.043696065575
 32      -0.153657815647
 33       0.246608197909
 34       0.124237200772
 35      -0.067622300153
 36       0.260886379870
 37       0.162489359192
 38      -0.044706587541
 39      -0.105258765594
 40       0.083764218429
 41       0.130040211988
 42      -0.013909888705
 43      -0.010528435647
 44      -0.116442038548
 Sym=     1a
 Ene= -6.58370039844523E-01
 Spin= Alpha
 Occup= 2.000000
  1      -0.101598383718
  2      -0.074960944131
  3       0.077521323934
  4       0.308580943080
  5       0.141677606275
  6       0.037860605212
  7      -0.037325281732
  8      -0.132572057690
  9       0.145334489576
 10       0.026908295966
 11      -0.013626386408
 12       0.069243748516
 13      -0.159728653222
 14       0.066089377823
 15      -0.047606547211
 16      -0.010358956535
 17      -0.137825115293
 18      -0.023099613860
 19      -0.000132099509
 20      -0.206810817586
 21       0.002345584115
 22      -0.058745532751
 23       0.057478561543
 24       0.204290224267
 25      -0.019848179478
 26       0.022352791625
 27      -0.038228927101
 28      -0.280072508285
 29       0.015762715665
 30      -0.289399859796
 31       0.186143776154
 32      -0.241705524095
 33       0.209268818856
 34       0.240465802366
 35      -0.178140710484
 36      -0.086282462747
 37      -0.300778797795
 38       0.092762908115
 39       0.068418975811
 40      -0.114271287241
 41      -0.150696340267
 42       0.196370096387
 43       0.201231218088
 44      -0.235023763590
 Sym=     1a
 Ene= -6.45713465887067E-01
 Spin= Alpha
 Occup= 2.000000
  1       0.000268341949
  2       0.019765094252
  3       0.026748793790
  4      -0.000565232307
  5       0.000052650542
  6       0.028457578546
  7       0.039377559052
  8      -0.002807712509
  9       0.000182488563
 10       0.022734742882
 11       0.035093721904
 12      -0.002591694921
 13      -0.000607319083
 14       0.055695956144
 15       0.081293758469
 16      -0.007072309442
 17       0.000115774195
 18       0.045352636958
 19       0.064655235743
 20      -0.005227597308
 21      -0.000790687994
 22       0.097781804821
 23       0.135685794131
 24      -0.009810950725
 25       0.001092279894
 26       0.197876940552
 27       0.278250709726
 28      -0.021678934149
 29       0.000302535712
 30       0.365398994478
 31       0.515126909435
 32      -0.041064886926
 33      -0.001165212900
 34       0.145703348136
 35       0.206970059188
 36      -0.016824753340
 37      -0.001142228856
 38      -0.000416581172
 39      -0.001180407345
 40       0.000873427764
 41      -0.000239129240
 42      -0.431778092826
 43       0.426923660834
 44       0.004091570974
 Sym=     1a
 Ene= -6.25037486994087E-01
 Spin= Alpha
 Occup= 2.000000
  1       0.156729896624
  2       0.058062239332
  3      -0.028475795951
  4       0.162545529845
  5      -0.080339533579
  6       0.190297104108
  7      -0.124412101454
  8       0.134034023532
  9      -0.073425766437
 10      -0.283266069889
 11       0.208021674364
 12       0.097347591718
 13       0.047335434846
 14      -0.272102816843
 15       0.186861013109
 16      -0.068447519273
 17       0.110856864104
 18       0.143497829153
 19      -0.102377577542
 20      -0.001858575111
 21      -0.257463297481
 22       0.093070223809
 23      -0.056415486360
 24       0.132868894776
 25       0.112407798980
 26      -0.006177715260
 27       0.004779849947
 28       0.027557834526
 29      -0.020711734962
 30      -0.044551555393
 31       0.007195025216
 32      -0.276363435462
 33      -0.102549061496
 34      -0.068688054581
 35       0.036263096072
 36      -0.142499867812
 37      -0.057708602889
 38      -0.258242592610
 39      -0.330773586075
 40       0.257955127826
 41       0.178044153893
 42       0.071856388907
 43       0.072690839551
 44      -0.240902927841
 Sym=     1a
 Ene= -5.80549121988047E-01
 Spin= Alpha
 Occup= 2.000000
  1       0.032288650161
  2      -0.212474098573
  3       0.156943659967
  4       0.080945725254
  5       0.053204464809
  6       0.317618426744
  7      -0.212277050936
  8       0.159564475250
  9      -0.048383626766
 10       0.192645196126
 11      -0.145862147589
 12      -0.118568155617
 13       0.107347887496
 14       0.149590206270
 15      -0.115967333829
 16      -0.126394551936
 17      -0.090406630751
 18       0.288361511481
 19      -0.194892393024
 20       0.120252795706
 21      -0.045384573872
 22      -0.198032621858
 23       0.148273961619
 24       0.101766193783
 25       0.021452615726
 26       0.103825919527
 27      -0.079778231271
 28      -0.084730621485
 29       0.009557960096
 30      -0.034158745074
 31       0.038830423754
 32       0.176301424795
 33      -0.099448217305
 34      -0.037664169279
 35       0.010763477277
 36      -0.214716118852
 37      -0.061356704967
 38      -0.336709710302
 39       0.213133909840
 40      -0.155627956555
 41       0.264442730423
 42      -0.015525115751
 43      -0.016658359475
 44       0.139650143800
 Sym=     1a
 Ene= -5.71916703421854E-01
 Spin= Alpha
 Occup= 2.000000
  1      -0.006653867000
  2      -0.120662588145
  3       0.082827384987
  4      -0.028065326503
  5      -0.056798920796
  6       0.012196753435
  7      -0.028090283713
  8      -0.239551502717
  9       0.051494499274
 10       0.046698409031
 11      -0.014369578491
 12       0.242360775079
 13       0.026552105885
 14      -0.042822502838
 15       0.050857153598
 16       0.267057229481
 17      -0.020297753621
 18      -0.083473806140
 19       0.037442619587
 20      -0.266203895301
 21       0.012079738351
 22      -0.059714856541
 23       0.039404865095
 24      -0.023173090419
 25      -0.002004785368
 26       0.310355796379
 27      -0.219599764912
 28       0.025487014219
 29      -0.032092998616
 30      -0.170879766942
 31       0.134641670879
 32       0.173134437591
 33      -0.275395935038
 34      -0.357690077176
 35       0.226370844108
 36      -0.344779946184
 37       0.018843755011
 38       0.062184202746
 39      -0.041258601977
 40       0.177695766543
 41      -0.202613842516
 42       0.053701891004
 43       0.053642149563
 44       0.093707294610
 Sym=     1a
 Ene= -5.33265923082957E-01
 Spin= Alpha
 Occup= 2.000000
  1       0.047065004048
  2       0.037714701624
  3      -0.009548691706
  4       0.246542101063
  5      -0.009469279945
  6       0.024108795265
  7      -0.033856341647
  8      -0.179490406019
  9       0.060346266695
 10      -0.162522935245
 11       0.115145084539
 12       0.030383459515
 13      -0.007429414800
 14      -0.150954870391
 15       0.117840090322
 16       0.175517417702
 17      -0.025382127630
 18       0.075425502021
 19      -0.061847045898
 20      -0.073047914520
 21       0.006901244874
 22      -0.024388440808
 23       0.031799073469
 24       0.224656497656
 25      -0.003250337423
 26      -0.058566062461
 27       0.022171614486
 28      -0.236799206221
 29      -0.021156148411
 30       0.167701094095
 31      -0.084001590943
 32       0.431999103956
 33       0.102914087502
 34       0.228554665641
 35      -0.160632837400
 36       0.036527362577
 37      -0.206789204081
 38       0.048122730972
 39      -0.146791807662
 40       0.196720862193
 41       0.030830502647
 42      -0.193020256829
 43      -0.198659373599
 44       0.408465327395
 Sym=     1a
 Ene= -5.21792931370239E-01
 Spin= Alpha
 Occup= 2.000000
  1       0.000332615523
  2       0.192484553791
  3       0.271799370723
  4      -0.020046880438
  5      -0.000189816489
  6       0.197913089094
  7       0.278769386640
  8      -0.023557406680
  9       0.000431260285
 10       0.194372654969
 11       0.276303358393
 12      -0.021358647401
 13       0.000227002335
 14       0.207999680779
 15       0.295989573228
 16      -0.021845840368
 17      -0.000189101175
 18       0.207510083276
 19       0.291967557887
 20      -0.023833015255
 21       0.000117476028
 22       0.235125550402
 23       0.332463450399
 24      -0.024839375225
 25      -0.000038354687
 26       0.113674615692
 27       0.159466786062
 28      -0.013706415348
 29      -0.000412959846
 30      -0.142146930766
 31      -0.201392093654
 32       0.018196941102
 33       0.000273318757
 34       0.151723539589
 35       0.211754769871
 36      -0.016943531361
 37      -0.001252812908
 38       0.000267837923
 39      -0.000889770392
 40       0.001547595149
 41      -0.000056208703
 42       0.176566436430
 43      -0.176166347598
 44       0.000215953225
 Sym=     1a
 Ene= -4.79368506658733E-01
 Spin= Alpha
 Occup= 2.000000
  1       0.008539390955
  2      -0.014559580426
  3       0.040832894825
  4       0.348588249062
  5       0.021580566735
  6       0.056547276667
  7      -0.062196351930
  8      -0.313284166131
  9       0.000084522571
 10      -0.007668020318
 11      -0.021512947550
 12      -0.372225262284
 13      -0.029487075527
 14      -0.022546933215
 15       0.040607316529
 16       0.286461412447
 17      -0.006829173516
 18       0.007773738401
 19       0.024834811181
 20       0.363855126374
 21       0.032849106923
 22       0.032129560066
 23      -0.039028210364
 24      -0.213300892947
 25      -0.102167992350
 26       0.025531891077
 27      -0.006855645536
 28       0.209658859533
 29      -0.009200889211
 30      -0.003925062262
 31      -0.002818039699
 32      -0.094981755649
 33      -0.042692148095
 34      -0.183840575738
 35       0.133793865157
 36       0.161908152672
 37      -0.341876400046
 38       0.100427235945
 39       0.178503485283
 40       0.161618246574
 41       0.163506855183
 42       0.027865665662
 43       0.032118646530
 44      -0.083658053858
 Sym=     1a
 Ene= -4.75415453966720E-01
 Spin= Alpha
 Occup= 2.000000
  1      -0.000055309116
  2       0.150513413694
  3       0.212295109780
  4      -0.020154298529
  5      -0.000104078610
  6       0.139032733402
  7       0.197128644131
  8      -0.012319418818
  9      -0.000014851587
 10       0.128045763441
 11       0.180521052952
 12      -0.010719239596
 13       0.000149126398
 14       0.095851990515
 15       0.135116098157
 16      -0.013867758127
 17       0.000098849840
 18       0.078386834296
 19       0.110705683043
 20      -0.012199727259
 21      -0.000250629469
 22       0.021613705290
 23       0.030624060531
 24       0.000071980843
 25       0.001080677370
 26      -0.216978794376
 27      -0.304490697591
 28       0.021395988164
 29       0.000182534616
 30       0.111799490848
 31       0.156607224096
 32      -0.010633631433
 33       0.000494302889
 34      -0.427714493875
 35      -0.606177045916
 36       0.045770028885
 37       0.003267187845
 38      -0.001320026860
 39      -0.001539657246
 40      -0.001521010515
 41      -0.001707040596
 42      -0.154741107619
 43       0.151620691275
 44       0.003051660857
 Sym=     1a
 Ene= -4.66149721394976E-01
 Spin= Alpha
 Occup= 2.000000
  1       0.002382432263
  2       0.275595174163
  3      -0.192264279659
  4       0.032819122226
  5      -0.003679128223
  6      -0.248964028338
  7       0.174568766278
  8      -0.027097703837
  9       0.000829758135
 10      -0.255632795307
 11       0.178259412966
 12      -0.038431345255
 13       0.014991594156
 14       0.272754468654
 15      -0.187085632070
 16       0.072735934908
 17      -0.002695877658
 18       0.274106555260
 19      -0.193801132543
 20       0.003731242371
 21      -0.011144456782
 22      -0.308279762264
 23       0.215463014585
 24      -0.039060206214
 25      -0.017983377239
 26       0.076519312915
 27      -0.051849888270
 28       0.037225349063
 29      -0.000122083841
 30      -0.061542076309
 31       0.044650457397
 32       0.005246714798
 33      -0.050490390929
 34      -0.075395601233
 35       0.042442152129
 36      -0.134855970145
 37      -0.024209079897
 38       0.273118482541
 39      -0.253008959801
 40      -0.248888497484
 41       0.275616517367
 42       0.030930416029
 43       0.031936997649
 44      -0.009626355424
 Sym=     1a
 Ene= -3.83032191205592E-01
 Spin= Alpha
 Occup= 2.000000
  1      -0.016213374531
  2      -0.014110323713
  3       0.010605643312
  4       0.005561940215
  5      -0.025260542118
  6      -0.011608335178
  7       0.002237518295
  8      -0.078011806333
  9      -0.005723196960
 10       0.026021260293
 11      -0.021518925224
 12      -0.039127600212
 13       0.029147564997
 14       0.031411383267
 15      -0.014240054066
 16       0.100000145774
 17       0.003643775705
 18      -0.080674268689
 19       0.061266473438
 20       0.054537109989
 21      -0.088477384234
 22       0.011233140179
 23      -0.027512490357
 24      -0.247063176741
 25      -0.009072455638
 26      -0.102892247579
 27       0.092403058678
 28       0.245992280696
 29       0.087738358220
 30       0.178976085963
 31      -0.134255131063
 32      -0.098347818924
 33       0.001331380684
 34       0.319288570949
 35      -0.284631531411
 36      -0.740040893046
 37      -0.010751758152
 38       0.047903516335
 39       0.056524919370
 40       0.038944854500
 41      -0.019418251151
 42      -0.065116546847
 43      -0.065535941943
 44      -0.031354965064
 Sym=     1a
 Ene= -3.50872355144205E-01
 Spin= Alpha
 Occup= 2.000000
  1      -0.000005329051
  2      -0.256043039529
  3      -0.361423658848
  4       0.028642389017
  5       0.000001718482
  6       0.040761213991
  7       0.057486399567
  8      -0.004557771506
  9       0.000060311828
 10      -0.304394097416