[Molden Format]
[Title]
 Molden file created by orca_2mkl for BaseName=orca

[Atoms] AU
C    1   6          0.5799569403         2.5516971125         2.8574548518 
C    2   6          0.4796125017         3.1120010752         0.4059131739 
C    3   6         -0.2513335783        -1.1459299521        -1.2672503398 
C    4   6          0.8558569518        -0.0988326743         3.7274847361 
C    5   6          0.8212749695         2.2109794956        -4.1241382923 
N    6   7         -0.3412845443        -2.5692715533        -3.2089438929 
N    7   7          0.4399282570         1.3624925723        -1.5367252863 
S    8  16         -1.1353474193        -2.2102237050         1.8279320852 
H    9   1          0.5519890270         4.0549745530         4.2369549656 
H   10   1          0.4635498111         5.0570961365        -0.2292237743 
H   11   1          2.8032197229        -0.7632603807         3.6186364704 
H   12   1          0.2086257628        -0.3293792653         5.6667215754 
H   13   1          2.2181605201         1.0276330648        -5.0461357084 
H   14   1         -0.9248319688         2.0851238010        -5.1988256867 
H   15   1          1.4811673549         4.1532399479        -4.1207366714 
H   16   1         -0.9144384962        -4.3344647952        -2.7444491745 
[GTO]
  1 0
s   3 1.0 
        6.8168449720        -0.1802384934
        0.4139511799         0.2192275595
        0.1589218664         0.0821929171
p   3 1.0 
        2.4273625586         0.7013433317
        0.6229747924         0.4466586163
        0.2115089320         0.0863434569

  2 0
s   3 1.0 
        6.8168449720        -0.1802384934
        0.4139511799         0.2192275595
        0.1589218664         0.0821929171
p   3 1.0 
        2.4273625586         0.7013433317
        0.6229747924         0.4466586163
        0.2115089320         0.0863434569

  3 0
s   3 1.0 
        6.8168449720        -0.1802384934
        0.4139511799         0.2192275595
        0.1589218664         0.0821929171
p   3 1.0 
        2.4273625586         0.7013433317
        0.6229747924         0.4466586163
        0.2115089320         0.0863434569

  4 0
s   3 1.0 
        6.8168449720        -0.1802384934
        0.4139511799         0.2192275595
        0.1589218664         0.0821929171
p   3 1.0 
        2.4273625586         0.7013433317
        0.6229747924         0.4466586163
        0.2115089320         0.0863434569

  5 0
s   3 1.0 
        6.8168449720        -0.1802384934
        0.4139511799         0.2192275595
        0.1589218664         0.0821929171
p   3 1.0 
        2.4273625586         0.7013433317
        0.6229747924         0.4466586163
        0.2115089320         0.0863434569

  6 0
s   3 1.0 
        9.8162567597        -0.2369296526
        0.5960896990         0.2881821110
        0.2288474876         0.1080453954
p   3 1.0 
        3.4954020843         1.1063277023
        0.8970837010         0.7045775989
        0.3045728621         0.1362017061

  7 0
s   3 1.0 
        9.8162567597        -0.2369296526
        0.5960896990         0.2881821110
        0.2288474876         0.1080453954
p   3 1.0 
        3.4954020843         1.1063277023
        0.8970837010         0.7045775989
        0.3045728621         0.1362017061

  8 0
s   3 1.0 
        2.0905224222        -0.2208766471
        0.2565931609         0.2213024156
        0.1211565577         0.0331042169
p   3 1.0 
        0.5519008131         0.3538485485
        9.9788050434        -0.2684668156
        0.2126874974         0.1122057845

  9 0
s   3 1.0 
        3.2077163232         0.2636419974
        0.5843012458         0.2549815803
        0.1581359918         0.0794659232

 10 0
s   3 1.0 
        3.2077163232         0.2636419974
        0.5843012458         0.2549815803
        0.1581359918         0.0794659232

 11 0
s   3 1.0 
        3.2077163232         0.2636419974
        0.5843012458         0.2549815803
        0.1581359918         0.0794659232

 12 0
s   3 1.0 
        3.2077163232         0.2636419974
        0.5843012458         0.2549815803
        0.1581359918         0.0794659232

 13 0
s   3 1.0 
        3.2077163232         0.2636419974
        0.5843012458         0.2549815803
        0.1581359918         0.0794659232

 14 0
s   3 1.0 
        3.2077163232         0.2636419974
        0.5843012458         0.2549815803
        0.1581359918         0.0794659232

 15 0
s   3 1.0 
        3.2077163232         0.2636419974
        0.5843012458         0.2549815803
        0.1581359918         0.0794659232

 16 0
s   3 1.0 
        3.2077163232         0.2636419974
        0.5843012458         0.2549815803
        0.1581359918         0.0794659232

[5D]
[7F]
[9G]
[MO]
 Sym=     1a
 Ene= -1.71179544807062E+00
 Spin= Alpha
 Occup= 2.000000
  1       0.192057515266
  2      -0.002707278809
  3      -0.042703397422
  4      -0.083051669014
  5       0.338268049067
  6      -0.003343233370
  7      -0.127002473330
  8      -0.083970110039
  9       0.384793031209
 10       0.041756021250
 11       0.133465466495
 12      -0.057767096393
 13       0.142398905688
 14      -0.011221418228
 15       0.031974886895
 16      -0.057548440545
 17       0.307904454522
 18      -0.026198933190
 19      -0.059084328912
 20       0.142377448222
 21       0.221842431031
 22       0.008569681095
 23       0.078785903487
 24       0.074536633939
 25       0.591471647250
 26      -0.019178714566
 27      -0.020630621732
 28       0.002732515370
 29       0.125588609649
 30       0.040182666289
 31       0.064894099797
 32      -0.046784882296
 33       0.048890017094
 34       0.114383154199
 35       0.058245096418
 36       0.039569053367
 37       0.118933080138
 38       0.117132001409
 39       0.113395101118
 40       0.072006899225
 Sym=     1a
 Ene= -1.43910309982792E+00
 Spin= Alpha
 Occup= 2.000000
  1       0.397220919179
  2       0.003412168731
  3      -0.067759682976
  4      -0.069758690314
  5       0.323099561264
  6       0.005429051383
  7      -0.075502144843
  8       0.093884781180
  9      -0.276248882710
 10       0.012663769502
 11       0.140332481853
 12       0.231259576775
 13       0.326460203266
 14      -0.014948725115
 15       0.083508748350
 16      -0.055572024496
 17      -0.123030252068
 18       0.015648361111
 19       0.068372939469
 20      -0.009480922772
 21      -0.468337398850
 22       0.010188500964
 23      -0.058197984556
 24      -0.149181854331
 25       0.012754564249
 26       0.012296562640
 27       0.113169315809
 28       0.185045355068
 29       0.066333273767
 30       0.044371955195
 31       0.088546263225
 32       0.088504362440
 33       0.141078273183
 34       0.101916346271
 35       0.131480484561
 36       0.124060742801
 37      -0.075839896120
 38      -0.067076101045
 39      -0.018352883321
 40      -0.197751044478
 Sym=     1a
 Ene= -1.36477436888795E+00
 Spin= Alpha
 Occup= 2.000000
  1       0.266706944004
  2       0.004777714786
  3      -0.087240331618
  4       0.031854651016
  5      -0.041793491244
  6      -0.001353694992
  7      -0.011347625720
  8       0.205490534816
  9       0.274592188503
 10      -0.040252599862
 11      -0.207367836100
 12      -0.025396402799
 13       0.343139290738
 14      -0.014973228462
 15       0.045263425277
 16      -0.035568055969
 17      -0.319792136081
 18       0.007955467251
 19      -0.011396097574
 20      -0.106839916650
 21       0.396897602356
 22      -0.028502395457
 23      -0.028510106116
 24       0.151827349300
 25      -0.277128151393
 26      -0.027950382003
 27      -0.144564513429
 28       0.112379250441
 29       0.247662476742
 30       0.072875020643
 31       0.069804887494
 32      -0.049314638581
 33       0.105838267483
 34      -0.063039872811
 35       0.146862678656
 36       0.142697397209
 37      -0.110812170560
 38      -0.118159357104
 39      -0.155221611161
 40       0.213501096393
 Sym=     1a
 Ene= -1.13126303450547E+00
 Spin= Alpha
 Occup= 2.000000
  1      -0.035977306251
  2       0.023441192768
  3      -0.166330965986
  4       0.232379546400
  5      -0.389282555464
  6       0.011080620599
  7       0.029306066645
  8       0.000193250385
  9      -0.078886563217
 10       0.023522511134
 11       0.024732561483
 12      -0.030946156123
 13       0.438394455745
 14       0.002625061538
 15      -0.035342913762
 16       0.085492651843
 17       0.385949920864
 18       0.001982589502
 19      -0.041669280875
 20      -0.046437905467
 21      -0.096032400379
 22       0.027576283387
 23       0.065099129582
 24      -0.048948977870
 25      -0.081231958683
 26       0.029213694943
 27      -0.067865200347
 28      -0.284844423961
 29       0.116183315211
 30       0.059739731397
 31       0.041307233196
 32       0.145878127414
 33       0.001037158972
 34      -0.165677477860
 35       0.213999285261
 36       0.257909410265
 37       0.208520469585
 38       0.196042923129
 39       0.152274911396
 40      -0.085344419708
 Sym=     1a
 Ene= -1.10970619012582E+00
 Spin= Alpha
 Occup= 2.000000
  1       0.316301806996
  2       0.014715266161
  3       0.162865687916
  4      -0.006027999228
  5       0.242894907175
  6       0.033924414258
  7       0.211363417828
  8       0.139153387198
  9      -0.239041106055
 10      -0.048043312138
 11      -0.261210815158
 12      -0.167897202990
 13      -0.052926644883
 14       0.029804879219
 15       0.116163808571
 16       0.068916900817
 17       0.287388502187
 18       0.023804060958
 19       0.076086868271
 20      -0.055994105144
 21       0.238681001131
 22      -0.026130865193
 23      -0.077820864282
 24       0.019373737259
 25      -0.250179801743
 26       0.079796829628
 27       0.249766461312
 28      -0.154524193193
 29      -0.213423878336
 30      -0.068344193097
 31      -0.103927264635
 32       0.041874475259
 33       0.221483753977
 34       0.219374008790
 35      -0.034136350324
 36      -0.001422199853
 37       0.136694784063
 38       0.139711964308
 39       0.194821098616
 40       0.150061329351
 Sym=     1a
 Ene= -9.66231549358274E-01
 Spin= Alpha
 Occup= 2.000000
  1       0.317800823375
  2       0.004317899833
  3       0.106893529557
  4       0.056459475811
  5      -0.113586540235
  6      -0.002930917004
  7       0.025086720846
  8       0.311504032086
  9       0.113578144394
 10       0.096246057774
 11       0.253771183158
 12      -0.204467959057
 13      -0.120125075627
 14       0.019650237519
 15       0.199001994086
 16       0.016435130079
 17      -0.057624605030
 18      -0.037437776924
 19      -0.212095164726
 20      -0.028672574266
 21      -0.081159461782
 22       0.070273954396
 23       0.249751373113
 24      -0.023297120641
 25       0.029840393660
 26      -0.060540668403
 27      -0.406468932820
 28      -0.148449753094
 29      -0.345101390085
 30      -0.076266190247
 31      -0.024242150991
 32       0.018622760692
 33       0.233105146479
 34      -0.109124904931
 35      -0.088996118685
 36      -0.063364400589
 37       0.043977545283
 38       0.010778922495
 39      -0.168064796662
 40      -0.199075827279
 Sym=     1a
 Ene= -8.88210196328888E-01
 Spin= Alpha
 Occup= 2.000000
  1       0.069943893922
  2      -0.052259493737
  3       0.073056938228
  4      -0.158607954999
  5      -0.002724442900
  6      -0.025482648331
  7       0.010049326722
  8       0.241983358280
  9       0.191308469020
 10      -0.059458976508
 11      -0.029553353673
 12       0.280484150288
 13      -0.215442251370
 14      -0.098610775370
 15      -0.032346746821
 16      -0.216011785899
 17       0.252173361336
 18       0.037061848151
 19       0.063463860918
 20      -0.307125924753
 21      -0.186967970791
 22      -0.002227726743
 23       0.019224520542
 24       0.030840923886
 25      -0.229789463180
 26      -0.043696603998
 27      -0.169798209213
 28       0.061990382368
 29       0.398571126269
 30       0.033575681973
 31       0.077917816648
 32      -0.200846355599
 33       0.002447744648
 34      -0.030299752827
 35      -0.152111809900
 36      -0.217742739199
 37       0.200832639104
 38       0.202811443754
 39       0.164389984556
 40      -0.075457551937
 Sym=     1a
 Ene= -7.76914288358556E-01
 Spin= Alpha
 Occup= 2.000000
  1       0.089456345968
  2       0.052025205602
  3      -0.298247706969
  4      -0.041291133083
  5      -0.111644811373
  6       0.034418971254
  7      -0.408854608726
  8       0.012408667598
  9      -0.127614584640
 10       0.036015936927
 11       0.058774259049
 12       0.052843268900
 13       0.003061462990
 14       0.076325446605
 15       0.284301657710
 16      -0.155001189883
 17       0.096375573148
 18       0.066147950131
 19       0.057383644196
 20      -0.202140073604
 21       0.153618106438
 22      -0.036718998914
 23      -0.229857790710
 24      -0.101795746554
 25       0.030226806452
 26       0.049563579590
 27       0.033661069762
 28       0.273267379670
 29      -0.365244469936
 30      -0.010262190581
 31       0.070675743595
 32      -0.067710116847
 33      -0.130166739768
 34      -0.333363759311
 35      -0.002947188172
 36      -0.141165936802
 37       0.120283467163
 38       0.078238393960
 39       0.080539087406
 40       0.199591157484
 Sym=     1a
 Ene= -7.23197577041449E-01
 Spin= Alpha
 Occup= 2.000000
  1       0.208313131167
  2      -0.046086744396
  3       0.004365252823
  4       0.391054428607
  5      -0.235724618605
  6      -0.038228525229
  7      -0.080008944706
  8      -0.135912699251
  9       0.023716242614
 10      -0.125004341206
 11      -0.056466642950
 12       0.195794236892
 13      -0.121561441474
 14      -0.171911317611
 15       0.292832238508
 16       0.052671373137
 17      -0.002284002521
 18      -0.053963073688
 19       0.083123665579
 20       0.252728813965
 21      -0.098270375969
 22      -0.088331308811
 23      -0.164136470461
 24       0.042394928089
 25       0.140799957841
 26      -0.026340196859
 27       0.159602326152
 28      -0.169201893513
 29       0.193153130636
 30      -0.135694730447
 31      -0.031023172999
 32      -0.227449372662
 33       0.312247005967
 34      -0.143920733206
 35      -0.260082449755
 36      -0.001543917639
 37      -0.156885203131
 38      -0.068827991487
 39       0.031706499431
 40       0.099618508525
 Sym=     1a
 Ene= -6.78854967860176E-01
 Spin= Alpha
 Occup= 2.000000
  1       0.014424199831
  2      -0.185610562866
  3       0.016912762600
  4      -0.115075571338
  5       0.025687050209
  6      -0.115622746904
  7      -0.049269350935
  8       0.116311295173
  9      -0.252045530084
 10       0.007479110779
 11       0.196941064289
 12      -0.087257589459
 13      -0.031322431167
 14      -0.430383916012
 15      -0.112144140898
 16      -0.025728107427
 17      -0.001940878976
 18      -0.144404179176
 19      -0.161134317283
 20      -0.019637261034
 21       0.205727567769
 22      -0.043664169348
 23      -0.179756518153
 24      -0.253441107276
 25       0.043524924460
 26      -0.114716346428
 27      -0.025564534612
 28      -0.058683744587
 29       0.208832612142
 30      -0.041506620672
 31       0.124592865925
 32       0.402114117744
 33      -0.040932331249
 34      -0.058593373474
 35      -0.311327540355
 36       0.089615221709
 37       0.003619031734
 38       0.114782780531
 39      -0.163084242683
 40       0.181275384778
 Sym=     1a
 Ene= -6.70195840902227E-01
 Spin= Alpha
 Occup= 2.000000
  1      -0.061625649357
  2      -0.064581030866
  3      -0.017487562357
  4       0.095387480056
  5       0.046516751088
  6      -0.168553240226
  7       0.033119474826
  8      -0.143820576786
  9       0.109538557481
 10      -0.176259588246
 11       0.078197985761
 12      -0.038178492021
 13       0.045972811381
 14      -0.015387989917
 15       0.049982432643
 16       0.210002885104
 17       0.000235395190
 18      -0.409139300589
 19       0.202935245960
 20      -0.267348576767
 21      -0.018178000929
 22      -0.095147813635
 23       0.092842910932
 24       0.030915053877
 25      -0.069636498741
 26      -0.431756316446
 27       0.002237083491
 28       0.220806645553
 29      -0.189757928363
 30      -0.068510856056
 31       0.049097170695
 32      -0.091577503125
 33       0.011985745027
 34       0.090779047185
 35      -0.018170387847
 36       0.178033441070
 37      -0.224096897040
 38       0.379396845966
 39       0.052974394470
 40      -0.052639085960
 Sym=     1a
 Ene= -6.34826569177546E-01
 Spin= Alpha
 Occup= 2.000000
  1      -0.004094236229
  2       0.103896999602
  3       0.213112833406
  4      -0.021781509517
  5      -0.059182156667
  6       0.008925086685
  7       0.103153371649
  8       0.120707436866
  9      -0.078050317870
 10      -0.013301937033
 11       0.217309363762
 12       0.225020270173
 13      -0.016695407543
 14       0.372883392510
 15      -0.180424139897
 16      -0.070808243779
 17       0.017901380418
 18      -0.221061060066
 19      -0.067044485881
 20       0.064126197302
 21       0.024555829636
 22      -0.109149143144
 23      -0.385589396859
 24      -0.189694119608
 25       0.083412676443
 26      -0.122066311168
 27      -0.138166000694
 28      -0.181772488657
 29       0.016017833036
 30       0.079034644173
 31      -0.107819984436
 32      -0.122069733957
 33       0.109944929854
 34       0.015339743327
 35       0.331697539489
 36      -0.147891090188
 37      -0.110365912597
 38       0.139062040973
 39      -0.109647994040
 40       0.289373863971
 Sym=     1a
 Ene= -6.26696560995191E-01
 Spin= Alpha
 Occup= 2.000000
  1       0.072545669909
  2       0.051525131850
  3      -0.235860447836
  4      -0.170292687581
  5       0.004731221710
  6       0.013333862934
  7      -0.088601245045
  8       0.126598989907
  9      -0.065060131633
 10      -0.109749057567
 11      -0.206131829989
 12      -0.127620367377
 13       0.022059335161
 14       0.079554241490
 15       0.112554958845
 16      -0.330395875885
 17       0.017046925594
 18      -0.358545917049
 19      -0.071213145991
 20       0.218597484696
 21      -0.026795409175
 22      -0.010312060690
 23       0.222991377592
 24       0.100241917860
 25      -0.044538456271
 26      -0.069833755912
 27       0.266639903875
 28      -0.286622192951
 29       0.085050586059
 30       0.020060585140
 31       0.025111219898
 32       0.046652327720
 33      -0.205926968676
 34      -0.099464047229
 35       0.063061066478
 36      -0.282793239529
 37      -0.237978698507
 38       0.175074532503
 39      -0.144389872628
 40      -0.149802485497
 Sym=     1a
 Ene= -5.61091874330219E-01
 Spin= Alpha
 Occup= 2.000000
  1       0.005658711725
  2      -0.061875869685
  3      -0.111702549421
  4      -0.047522793679
  5      -0.072368063106
  6      -0.027615233086
  7       0.192062081616
  8       0.116312719717
  9       0.081045715004
 10       0.087909492983
 11       0.124717598191
 12       0.012667189907
 13       0.065002284839
 14      -0.145568777137
 15      -0.012027904890
 16      -0.187969906149
 17       0.002967848942
 18       0.043554982477
 19       0.454560488925
 20       0.219841848232
 21       0.020881984263
 22       0.011163563581
 23      -0.097557332291
 24       0.010800518073
 25      -0.039690034338
 26      -0.038938017386
 27      -0.239335553726
 28      -0.172488655498
 29      -0.223001704974
 30       0.186358694141
 31       0.263919405273
 32       0.098519694953
 33      -0.093126558633
 34       0.127705442646
 35      -0.071475160981
 36      -0.082161340448
 37      -0.287122705747
 38      -0.156838554031
 39       0.406685278886
 40       0.061735586937
 Sym=     1a
 Ene= -5.39644044193838E-01
 Spin= Alpha
 Occup= 2.000000
  1      -0.071995981647
  2      -0.040824509119
  3      -0.316133626158
  4      -0.082731063265
  5       0.094363601591
  6      -0.068119710287
  7       0.282757635803
  8       0.027299341573
  9       0.058363736814
 10      -0.141742840711
 11       0.024969739842
 12       0.199035087901
 13       0.091697122303
 14      -0.069358316179
 15       0.254185180734
 16       0.091397779276
 17       0.014677132349
 18       0.082249774895
 19      -0.301293982673
 20       0.050163704510
 21      -0.072926740852
 22      -0.106624949485
 23      -0.129240363658
 24      -0.032054215275
 25      -0.069794466247
 26      -0.063129183573
 27      -0.044034993944
 28      -0.219265235653
 29      -0.166824216895
 30      -0.087687632631
 31       0.182654488741
 32      -0.314928216427
 33      -0.296893515361
 34       0.275809534232
 35      -0.093888500945
 36       0.109987218970
 37       0.189784176711
 38      -0.057830676109
 39      -0.215580357558
 40       0.098036178739
 Sym=     1a
 Ene= -5.09411934138052E-01
 Spin= Alpha
 Occup= 2.000000
  1      -0.008613139892
  2       0.029861239155
  3      -0.124507240671
  4       0.410173643716
  5      -0.033475941939
  6      -0.027016873151
  7       0.237518826339
  8      -0.368171605802
  9      -0.027497721858
 10       0.120388043619
 11       0.028946692315
 12      -0.000523344474
 13       0.029844260588
 14      -0.008131376361
 15       0.099566445165
 16      -0.390970174574
 17      -0.055098954125
 18      -0.014902195922
 19      -0.122261093840
 20      -0.151714004339
 21       0.116833402792
 22       0.129871204327
 23       0.045441336936
 24      -0.151200216802
 25      -0.037425333554
 26      -0.026981827068
 27      -0.012572772897
 28       0.139468886113
 29       0.029910922853
 30       0.175176276829
 31       0.101888455343
 32       0.131822269905
 33       0.174914296888
 34       0.300196521929
 35       0.009565147995
 36      -0.335195615053
 37       0.105704347089
 38       0.064704934162
 39      -0.115171810231
 40      -0.046139292428
 Sym=     1a
 Ene= -5.01728707275315E-01
 Spin= Alpha
 Occup= 2.000000
  1       0.003241530567
  2       0.147624057972
  3      -0.196134188740
  4      -0.009096532762
  5       0.014770657631
  6       0.062363366550
  7       0.103146064588
  8      -0.008500219246
  9      -0.080582351677
 10      -0.102605235078
 11       0.231974826980
 12      -0.167819231737
 13      -0.022512639315
 14       0.180075338087
 15       0.261108723536
 16       0.007892015874
 17      -0.035595066543
 18       0.110041633196
 19       0.159762309072
 20      -0.014166340851
 21       0.093616388033
 22      -0.111255551531
 23       0.066918944198
 24      -0.165744138038
 25      -0.019218698623
 26      -0.101686429561
 27      -0.169582653859
 28       0.038319336706
 29       0.351700459229
 30      -0.529436086267
 31      -0.286926050087
 32       0.132761602800
 33      -0.144897936292
 34       0.113618589185
 35       0.064246895563
 36      -0.083445466066
 37      -0.029229638156
 38      -0.102420414322
 39       0.176667420651
 40      -0.005331043275
 Sym=     1a
 Ene= -4.80869186545032E-01
 Spin= Alpha
 Occup= 2.000000
  1      -0.017645691450
  2       0.150529110498
  3      -0.121966207272
  4      -0.027085397211
  5       0.029700836523
  6       0.272701288332
  7       0.097189246965
  8       0.002152439793
  9       0.019942086045
 10       0.392841278109
 11      -0.049367741402
 12       0.078737401051
 13      -0.009862355620
 14      -0.103323551654
 15       0.174246546909
 16       0.122685125025
 17      -0.009920404621
 18      -0.310900635128
 19       0.041238192748
 20      -0.060040265833
 21      -0.048424040193
 22       0.289198983225
 23      -0.153768042131
 24       0.064644051340
 25       0.019931515952
 26       0.410146136401
 27      -0.177204181912
 28       0.037212838981
 29       0.071808669068
 30       0.013078471771
 31      -0.243581894134
 32      -0.035511155521
 33      -0.115013219092
 34       0.100014023074
 35      -0.150560829779
 36       0.126354182017
 37      -0.192606483076
 38       0.263105080213
 39      -0.058183483212
 40       0.049126942508
 Sym=     1a
 Ene= -4.08454106334516E-01
 Spin= Alpha
 Occup= 2.000000
  1      -0.045470729354
  2       0.218080273512
  3       0.124398543434
  4       0.023592359715
  5      -0.018837078806
  6       0.373612572576
  7       0.003484564397
  8      -0.038218841136
  9       0.022638714385
 10      -0.194196189535
 11       0.008503667844
 12       0.055510786000
 13       0.000473855174
 14      -0.028448427472
 15      -0.132178034694
 16      -0.011457555754
 17      -0.008387934100
 18      -0.102138498320
 19       0.005556103639
 20       0.002017190193
 21       0.099520868717
 22      -0.241758489408
 23       0.142716579442
 24      -0.194593320220
 25      -0.008603188009
 26       0.380235364502
 27      -0.032749285093
 28       0.045220882660
 29      -0.049168055638
 30      -0.319134740486
 31       0.557147665950
 32      -0.044140742874
 33       0.098135857489
 34       0.009068297785
 35       0.013629727780
 36       0.014470806987
 37      -0.084258700083
 38       0.099166775674
 39      -0.022393668325
 40      -0.063827044353
 Sym=     1a
 Ene= -3.90352085069070E-01
 Spin= Alpha
 Occup= 2.000000
  1      -0.004145516582
  2      -0.181479385294
  3       0.032490563389
  4      -0.041251316843
  5       0.004013180301
  6      -0.226539992513
  7      -0.046939482493
  8       0.039406243334
  9      -0.019432413384
 10       0.212751286871
 11      -0.082798469107
 12       0.189297677380
 13      -0.030733319082
 14       0.118728785691
 15      -0.003980510813
 16       0.095529899641
 17       0.004544062084
 18      -0.018508179282
 19       0.045153832818
 20       0.090843055410
 21       0.282392789335
 22       0.558819368104
 23       0.085081517298
 24      -0.408343545392
 25      -0.050664695535
 26      -0.069749447112
 27       0.099759086845
 28      -0.059513416295
 29       0.036060617133
 30      -0.245474617790
 31       0.189517492932
 32      -0.220898012986
 33      -0.002083452393
 34      -0.050888447476
 35       0.092238141582
 36       0.038695684970
 37      -0.046773626377
 38      -0.039398615366
 39       0.049346685954
 40      -0.184531227744
 Sym=     1a
 Ene= -3.79043233915899E-01
 Spin= Alpha
 Occup= 2.000000
  1      -0.017556395411
  2      -0.133283992586
  3       0.027209446832
  4       0.031830608045
  5      -0.007307469943
  6      -0.160811320184
  7       0.014771624003
  8      -0.017708442121
  9       0.005060545769
 10       0.181341723272
 11      -0.062567038350
 12      -0.126476838789
 13       0.010063558143
 14       0.097249332172
 15      -0.058163346987
 16      -0.070306691085
 17       0.012506065136
 18      -0.013398961283
 19      -0.035055813165
 20      -0.051063405645
 21      -0.247617440533
 22       0.192173226086
 23      -0.266866939376
 24       0.505049800055
 25       0.036180309930
 26      -0.016935429736
 27      -0.023067375378
 28       0.015447371234
 29      -0.002506941181
 30      -0.503883260763
 31       0.329160957837
 32       0.179398222572
 33       0.041295753467
 34       0.015250258160
 35       0.124733372993
 36      -0.092995284793
 37       0.036605937820
 38       0.033342185719
 39      -0.053581825713
 40       0.161376759690
 Sym=     1a
 Ene= -3.10003796988665E-01
 Spin= Alpha
 Occup= 2.000000
  1       0.002542191072
  2      -0.570643417928
  3      -0.056233144446
  4       0.039034443054
  5      -0.001520342646
  6      -0.406363310539
  7       0.024692679021
  8       0.000090220407
  9      -0.030385574526
 10      -0.007570901977
 11      -0.001718749895
 12      -0.017656258335
 13       0.006797978100
 14       0.102310471862
 15       0.025104059003
 16      -0.012721205072
 17      -0.003498432266
 18      -0.068621728955
 19       0.024955302780
 20      -0.007397028928
 21       0.011608754105
 22      -0.330215345062
 23       0.110827740251
 24      -0.061834004401
 25       0.026172420878
 26       0.543313674857
 27      -0.117233371865
 28       0.058129274796
 29       0.003667005033
 30      -0.017010936318
 31      -0.114979173999
 32      -0.048061038421
 33      -0.009904254120
 34       0.033193292948
 35       0.111786587016
 36      -0.056144090376
 37      -0.085735620439
 38       0.086770071241
 39      -0.001689676255
 40      -0.009309373321
 Sym=     1a
 Ene= 2.52251653690518E-02
 Spin= Alpha
 Occup= 0.000000
  1      -0.010815514867
  2       0.463733740397
  3       0.027038345350
  4      -0.019641157327
  5       0.016937688965
  6      -0.433175605751
  7      -0.009754572381
  8       0.012104108637
  9       0.030238532224
 10       0.565513840977
 11      -0.166349472594
 12       0.109502367378
 13      -0.038027525601
 14       0.000740693463
 15       0.028559002564
 16       0.019864673909
 17       0.025900032044
 18       0.003008607342
 19       0.000299421914
 20       0.018190137067
 21      -0.003316441422
 22      -0.433087450066
 23       0.115645500538
 24      -0.075367981006
 25      -0.020874965360
 26      -0.063409130164
 27       0.034660372062
 28      -0.019781689851
 29       0.017841109917
 30      -0.051304798377
 31       0.081326846228
 32       0.048916066286
 33       0.005638137927
 34      -0.019179505682
 35      -0.052987303391
 36       0.056315240530
 37      -0.001880225358
 38      -0.019671244484
 39      -0.009540905228
 40      -0.000129645470
 Sym=     1a
 Ene= 5.10017786821182E-02
 Spin= Alpha
 Occup= 0.000000
  1      -0.020025805084
  2       0.485459651483
  3       0.029660511246
  4      -0.017164748362
  5      -0.008975554315
  6      -0.537990958072
  7       0.009898386392
  8       0.036444367547
  9      -0.107806054335
 10      -0.452502053750
 11       0.102282949168
 12      -0.108343512985
 13       0.021092557309
 14      -0.012361113798
 15       0.009584243709
 16       0.007239862133
 17      -0.009021485063
 18       0.001545461354
 19       0.013276978741
 20      -0.015997084577
 21       0.023364519761
 22       0.306971715269