[Molden Format]
[Title]
 Molden file created by orca_2mkl for BaseName=1

[Atoms] AU
C    1   6          3.4557079676        -2.1272353931        -0.2205028560 
C    2   6          1.6265502272        -0.7322856960         1.0336907252 
C    3   6          5.3376771117        -3.3526346755         1.1401423038 
C    4   6          1.6771065483        -0.5607911513         3.6487176349 
C    5   6          5.3866849160        -3.1811114974         3.7480396907 
C    6   6          3.5561482401        -1.7835293987         5.0225084056 
C    7   6          3.6852075249        -1.6543050473         7.8506151947 
C    8   6          1.7037964831        -0.1392152119         9.2364665837 
O    9   8          5.3407003939        -2.7420723566         8.9920346695 
H   10   1          3.4168721303        -2.2611934644        -2.2577989082 
H   11   1          0.1619429958         0.2214043385        -0.0210779302 
H   12   1          6.7628597029        -4.4393651352         0.1624242542 
H   13   1          0.2442474868         0.5297381121         4.6081664640 
H   14   1          6.8298768414        -4.1174086086         4.8447216721 
H   15   1         -0.1747462295        -0.8901187132         8.8557707384 
H   16   1          1.7261248560         1.8229717902         8.6155547872 
H   17   1          2.0895920143        -0.2335969398        11.2468449927 
[GTO]
  1 0
s   3 1.0 
        6.8168449720        -0.1802384934
        0.4139511799         0.2192275595
        0.1589218664         0.0821929171
p   3 1.0 
        2.4273625586         0.7013433317
        0.6229747924         0.4466586163
        0.2115089320         0.0863434569

  2 0
s   3 1.0 
        6.8168449720        -0.1802384934
        0.4139511799         0.2192275595
        0.1589218664         0.0821929171
p   3 1.0 
        2.4273625586         0.7013433317
        0.6229747924         0.4466586163
        0.2115089320         0.0863434569

  3 0
s   3 1.0 
        6.8168449720        -0.1802384934
        0.4139511799         0.2192275595
        0.1589218664         0.0821929171
p   3 1.0 
        2.4273625586         0.7013433317
        0.6229747924         0.4466586163
        0.2115089320         0.0863434569

  4 0
s   3 1.0 
        6.8168449720        -0.1802384934
        0.4139511799         0.2192275595
        0.1589218664         0.0821929171
p   3 1.0 
        2.4273625586         0.7013433317
        0.6229747924         0.4466586163
        0.2115089320         0.0863434569

  5 0
s   3 1.0 
        6.8168449720        -0.1802384934
        0.4139511799         0.2192275595
        0.1589218664         0.0821929171
p   3 1.0 
        2.4273625586         0.7013433317
        0.6229747924         0.4466586163
        0.2115089320         0.0863434569

  6 0
s   3 1.0 
        6.8168449720        -0.1802384934
        0.4139511799         0.2192275595
        0.1589218664         0.0821929171
p   3 1.0 
        2.4273625586         0.7013433317
        0.6229747924         0.4466586163
        0.2115089320         0.0863434569

  7 0
s   3 1.0 
        6.8168449720        -0.1802384934
        0.4139511799         0.2192275595
        0.1589218664         0.0821929171
p   3 1.0 
        2.4273625586         0.7013433317
        0.6229747924         0.4466586163
        0.2115089320         0.0863434569

  8 0
s   3 1.0 
        6.8168449720        -0.1802384934
        0.4139511799         0.2192275595
        0.1589218664         0.0821929171
p   3 1.0 
        2.4273625586         0.7013433317
        0.6229747924         0.4466586163
        0.2115089320         0.0863434569

  9 0
s   3 1.0 
       13.3610161452        -0.2985654859
        0.8113443126         0.3631509651
        0.3114868582         0.1361527594
p   3 1.0 
        4.7576306148         1.6264876173
        1.2210305931         1.0358474598
        0.4145575068         0.2002393937

 10 0
s   3 1.0 
        3.2077163232         0.2636419974
        0.5843012458         0.2549815803
        0.1581359918         0.0794659232

 11 0
s   3 1.0 
        3.2077163232         0.2636419974
        0.5843012458         0.2549815803
        0.1581359918         0.0794659232

 12 0
s   3 1.0 
        3.2077163232         0.2636419974
        0.5843012458         0.2549815803
        0.1581359918         0.0794659232

 13 0
s   3 1.0 
        3.2077163232         0.2636419974
        0.5843012458         0.2549815803
        0.1581359918         0.0794659232

 14 0
s   3 1.0 
        3.2077163232         0.2636419974
        0.5843012458         0.2549815803
        0.1581359918         0.0794659232

 15 0
s   3 1.0 
        3.2077163232         0.2636419974
        0.5843012458         0.2549815803
        0.1581359918         0.0794659232

 16 0
s   3 1.0 
        3.2077163232         0.2636419974
        0.5843012458         0.2549815803
        0.1581359918         0.0794659232

 17 0
s   3 1.0 
        3.2077163232         0.2636419974
        0.5843012458         0.2549815803
        0.1581359918         0.0794659232

[5D]
[7F]
[9G]
[MO]
 Sym=     1a
 Ene= 0.00000000000000E+00
 Spin= Alpha
 Occup= -0.000000
  1       0.131220014911
  2       0.052576480629
  3      -0.036893912879
  4       0.017966506388
  5       0.105096263879
  6       0.060932075732
  7      -0.026922813017
  8       0.222453984786
  9       0.216310566050
 10       0.015219846021
 11      -0.012808187611
 12      -0.021290242856
 13       0.618058251929
 14      -0.067692150673
 15       0.055799120826
 16       0.111793463670
 17       0.158844232226
 18      -0.023825011189
 19       0.015740727721
 20      -0.015468333201
 21       0.345865168589
 22      -0.127379023412
 23       0.088453264437
 24      -0.020914466914
 25       0.139360576144
 26       0.026326723600
 27      -0.028208787518
 28      -0.127665051766
 29      -0.083400409970
 30       0.014854361385
 31      -0.014649969169
 32      -0.061873087343
 33       0.166660693220
 34       0.023954646305
 35      -0.018909697696
 36      -0.031641984119
 37       0.067324031790
 38      -0.073837326137
 39       0.142373770118
 40       0.417897861773
 41       0.070727980486
 42      -0.031442558669
 43      -0.029880650632
 44      -0.056802880441
 Sym=     1a
 Ene= 0.00000000000000E+00
 Spin= Alpha
 Occup= 0.000000
  1      -0.010466865133
  2       0.018955490265
  3      -0.012808271641
  4       0.007047291764
  5      -0.018021294967
  6       0.021233273072
  7      -0.008965728349
  8       0.079379272520
  9       0.063659560263
 10       0.025877713550
 11      -0.017065680770
 12       0.011145934395
 13       0.121040523782
 14      -0.035806211084
 15       0.025811597331
 16       0.008013476148
 17       0.022692264500
 18       0.012570447362
 19      -0.012193627642
 20      -0.047097579285
 21      -0.005498087476
 22      -0.035931362154
 23       0.023327681147
 24      -0.028734937872
 25      -0.116978519424
 26      -0.125052998225
 27       0.083420180639
 28      -0.068916199969
 29       0.006869107212
 30      -0.009244850212
 31       0.006053593427
 32      -0.005893125530
 33      -0.921148203441
 34      -0.179541255169
 35       0.118367282492
 36      -0.116477659350
 37      -0.005825538718
 38      -0.058179854817
 39       0.050508730837
 40       0.094104045053
 41      -0.008322096652
 42       0.008700275505
 43       0.008828872112
 44      -0.004283687179
 Sym=     1a
 Ene= 0.00000000000000E+00
 Spin= Alpha
 Occup= 0.000000
  1      -0.065167345040
  2      -0.095321161289
  3       0.067981506597
  4       0.007591154120
  5       0.141093701403
  6      -0.086490000134
  7       0.051282948266
  8      -0.132000886475
  9      -0.393693579267
 10      -0.137187732760
 11       0.095313383094
 12      -0.009341033093
 13       0.025968892935
 14       0.119810333901
 15      -0.078106484371
 16       0.083098599120
 17      -0.136773573112
 18      -0.168224714437
 19       0.133951434437
 20       0.204772770715
 21       0.393454230362
 22       0.005474194919
 23       0.008386312421
 24       0.163081108470
 25       0.160424851288
 26       0.034290609130
 27      -0.048491056264
 28      -0.331436951035
 29      -0.232301907598
 30      -0.010715671979
 31       0.002953212898
 32      -0.088016377778
 33      -0.109772894761
 34       0.019305432702
 35      -0.022160924496
 36      -0.138482233380
 37      -0.048557805131
 38       0.205337951602
 39      -0.308336591762
 40      -0.057239158277
 41      -0.123043707605
 42      -0.093019400822
 43      -0.089892639593
 44      -0.165404148683
 Sym=     1a
 Ene= 0.00000000000000E+00
 Spin= Alpha
 Occup= 0.000000
  1      -0.362534417143
  2      -0.146561308276
  3       0.113288447693
  4       0.077271684131
  5       0.355052621388
  6      -0.173383036154
  7       0.141363563064
  8       0.206804556962
  9      -0.311127431654
 10       0.082290738720
 11      -0.044457716829
 12       0.133562290667
 13       0.318037056229
 14      -0.086906798742
 15       0.043353125699
 16      -0.240456736472
 17      -0.064162895989
 18       0.072207400098
 19      -0.046852038131
 20       0.029458075957
 21      -0.166814410962
 22      -0.066073194868
 23       0.035301462237
 24      -0.154433211345
 25      -0.133393617810
 26      -0.028469523302
 27       0.034399039033
 28       0.188952770638
 29       0.130874890758
 30       0.001703287207
 31       0.003473311259
 32       0.069180245362
 33       0.031338128257
 34       0.002599309751
 35       0.004903006200
 36       0.095441893444
 37      -0.230583032050
 38       0.233573829497
 39      -0.138465383886
 40       0.124702209474
 41       0.035981704901
 42       0.051368262857
 43       0.050059986426
 44       0.107278821971
 Sym=     1a
 Ene= 0.00000000000000E+00
 Spin= Alpha
 Occup= 0.000000
  1      -0.500040111995
  2       0.014788088839
  3      -0.007152716564
  4       0.021225944067
  5      -0.544966385181
  6       0.082966337789
  7      -0.046290161530
  8       0.145481391927
  9      -0.222627881248
 10       0.127977816233
 11      -0.081524211316
 12       0.093340620277
 13       0.002199105607
 14      -0.019002621573
 15       0.031434052222
 16       0.222298477950
 17      -0.010330811820
 18       0.037867499849
 19      -0.020532026894
 20       0.064883060648
 21       0.067913666593
 22      -0.038634345967
 23       0.032054101396
 24       0.052587772725
 25       0.049164925048
 26       0.013396911971
 27      -0.013238581591
 28      -0.053560435373
 29      -0.003923203819
 30      -0.009134040919
 31       0.005843770049
 32      -0.015480326706
 33       0.054746305115
 34       0.008245856556
 35      -0.007248766045
 36      -0.024111723277
 37      -0.278640100437
 38      -0.416171418107
 39      -0.047214493536
 40       0.098187131937
 41       0.037297573363
 42       0.006286971695
 43       0.007229977090
 44      -0.003913290182
 Sym=     1a
 Ene= 0.00000000000000E+00
 Spin= Alpha
 Occup= 0.000000
  1      -0.200749411729
  2      -0.043657490560
  3       0.049818316297
  4       0.210924914881
  5       0.099663042226
  6       0.023453027558
  7      -0.009216061532
  8       0.068583932504
  9       0.260331032587
 10       0.102211872781
 11      -0.049448660210
 12       0.277911770798
 13      -0.057599199609
 14       0.351571187968
 15      -0.259024132172
 16      -0.132599776000
 17       0.379388504483
 18      -0.092493107916
 19       0.051552591317
 20      -0.170760810259
 21       0.305379214180
 22       0.003839261473
 23      -0.017180990665
 24      -0.174262228048
 25      -0.009864149479
 26       0.011465355599
 27      -0.012210575728
 28      -0.060857554526
 29      -0.038363944078
 30      -0.013555479823
 31       0.013222733007
 32       0.030748637755
 33      -0.015340568882
 34       0.027653949237
 35      -0.018480279606
 36      -0.001430967364
 37      -0.216695585087
 38       0.040234506740
 39       0.138336507023
 40      -0.367559068540
 41       0.076097201195
 42      -0.021906521277
 43      -0.021184181159
 44      -0.009005426612
 Sym=     1a
 Ene= 0.00000000000000E+00
 Spin= Alpha
 Occup= 0.000000
  1       0.041904160018
  2       0.010659798021
  3      -0.008388554353
  4      -0.007590865495
  5      -0.025192243113
  6       0.036358447295
  7      -0.025570686037
  8       0.006884635239
  9      -0.025219928153
 10      -0.004635434562
 11      -0.004398874142
 12      -0.098272180130
 13       0.038322244665
 14       0.064884305057
 15      -0.041902041392
 16       0.052826742503
 17      -0.083898509324
 18       0.008215509817
 19      -0.002212854068
 20       0.040897888147
 21       0.019440128801
 22      -0.094142919658
 23       0.061548287319
 24      -0.072091341244
 25      -0.467219055241
 26      -0.289608823270
 27       0.187336879238
 28      -0.243715969604
 29      -0.071632846598
 30      -0.080915371733
 31       0.056862382054
 32      -0.009675023043
 33      -0.051860314166
 34       0.531682686699
 35      -0.350028449176
 36       0.350537066295
 37       0.021965698539
 38      -0.043277906298
 39       0.028747413484
 40      -0.018060595391
 41      -0.004713143920
 42      -0.009969415025
 43      -0.009445992315
 44      -0.040237997798
 Sym=     1a
 Ene= 0.00000000000000E+00
 Spin= Alpha
 Occup= 0.000000
  1      -0.120955093644
  2      -0.071366077888
  3       0.039863766533
  4      -0.137455110325
  5      -0.056283628221
  6      -0.171042165329
  7       0.103327649867
  8      -0.234002125824
  9       0.126122296327
 10       0.071655910934
 11      -0.013564235946
 12       0.474465369205
 13      -0.096076229515
 14      -0.251420268658
 15       0.193492802412
 16       0.185770908721
 17       0.220745747412
 18      -0.073837875947
 19       0.020136401579
 20      -0.402848826888
 21      -0.090568829465
 22       0.118009022374
 23      -0.076831149669
 24       0.083180231519
 25      -0.078341740580
 26      -0.008730440455
 27       0.000167469792
 28      -0.085137867818
 29      -0.167865604288
 30      -0.016492448958
 31       0.010256220334
 32      -0.032103716123
 33       0.008233340783
 34       0.085359644372
 35      -0.057554800726
 36       0.033516048370
 37       0.059403664510
 38       0.196661078062
 39      -0.107080375472
 40       0.258685292338
 41      -0.164828208173
 42      -0.065503892209
 43      -0.063719155779
 44      -0.091815775992
 Sym=     1a
 Ene= 0.00000000000000E+00
 Spin= Alpha
 Occup= 0.000000
  1      -0.064643494613
  2       0.283680080887
  3      -0.161200361844
  4       0.527556175305
  5       0.015704642160
  6      -0.052635134625
  7       0.036006336207
  8       0.000879008032
  9       0.278114695963
 10      -0.252772895941
 11       0.163011490245
 12      -0.182431457467
 13      -0.048751404044
 14      -0.119447926747
 15       0.083778349410
 16      -0.008831367343
 17      -0.198537973545
 18      -0.118928339438
 19       0.074347491072
 20      -0.119481689978
 21      -0.096454302550
 22       0.039300498671
 23      -0.020807666100
 24       0.084282931952
 25       0.006211518200
 26       0.010077879971
 27      -0.010950421489
 28      -0.054146287687
 29      -0.017267776420
 30      -0.035934812324
 31       0.023990277789
 32      -0.022069543452
 33       0.019416672465
 34       0.029249534750
 35      -0.022511298438
 36      -0.025154207082
 37      -0.466340188621
 38       0.088531779286
 39      -0.009031203053
 40       0.110637989108
 41      -0.207725484724
 42       0.014241314003
 43       0.015084679721
 44      -0.026746424670
 Sym=     1a
 Ene= 0.00000000000000E+00
 Spin= Alpha
 Occup= 0.000000
  1      -0.251854955628
  2       0.307155488441
  3      -0.236828784555
  4      -0.312377313670
  5      -0.131846723320
  6      -0.413127616879
  7       0.310738827390
  8       0.183668492871
  9       0.131351138866
 10       0.161504968630
 11      -0.123623691731
 12      -0.182553490322
 13       0.030005671108
 14       0.084525981532
 15      -0.063039232908
 16      -0.057559488285
 17      -0.195426113866
 18       0.010574313413
 19      -0.007010182434
 20      -0.032808899711
 21       0.022598363937
 22      -0.114502915999
 23       0.085532460910
 24       0.040344444560
 25       0.002653194516
 26       0.044610562129
 27      -0.031949207811
 28      -0.016469746402
 29      -0.147663739167
 30       0.009984907669
 31      -0.007645164292
 32      -0.019707420501
 33       0.014457928763
 34      -0.028106841719
 35       0.019573059270
 36      -0.021673809897
 37       0.138399909375
 38       0.213664152434
 39       0.229785407803
 40      -0.154882825615
 41      -0.118603269154
 42      -0.071579313226
 43      -0.070569887989
 44      -0.087609793234
 Sym=     1a
 Ene= 0.00000000000000E+00
 Spin= Alpha
 Occup= 0.000000
  1       0.047058475687
  2      -0.210048576411
  3       0.149982491940
  4       0.013856444972
  5       0.060210771534
  6       0.201100380756
  7      -0.145891274847
  8      -0.021514987748
  9      -0.003215408330
 10       0.107260104398
 11      -0.064965420077
 12       0.105556190514
 13       0.102641397838
 14       0.170669652070
 15      -0.117124767488
 16       0.060264563623
 17      -0.451982191820
 18      -0.088868015030
 19       0.035192382148
 20      -0.394490085520
 21      -0.087758443288
 22      -0.322020981996
 23       0.227509381251
 24      -0.030608728182
 25       0.030114844134
 26       0.016120873661
 27      -0.003747745215
 28       0.087476930869
 29      -0.061222682785
 30       0.013987473526
 31      -0.013028922741
 32      -0.039936796294
 33       0.049409251296
 34      -0.077922367017
 35       0.056516891764
 36       0.004143571211
 37       0.035721634704
 38      -0.128287358816
 39       0.064049206004
 40      -0.068842457561
 41      -0.437526458985
 42      -0.024118656401
 43      -0.023837505858
 44      -0.052056181548
 Sym=     1a
 Ene= 0.00000000000000E+00
 Spin= Alpha
 Occup= 0.000000
  1       0.027140954815
  2      -0.052146104313
  3       0.041701815639
  4       0.029816097967
  5       0.028739211905
  6       0.047903945411
  7      -0.036096368601
  8      -0.038405947891
  9       0.000515483456
 10       0.043286900802
 11      -0.029914691619
 12      -0.041623972590
 13       0.030960667149
 14       0.000360464878
 15       0.002188178413
 16       0.012181640610
 17      -0.019819268793
 18       0.098818142886
 19      -0.061542131395
 20       0.052176514458
 21      -0.117512654954
 22      -0.028474864003
 23       0.017862850828
 24      -0.082167898776
 25      -0.404346992201
 26       0.432864766580
 27      -0.309154445723
 28      -0.101472099187
 29      -0.284018638606
 30      -0.411814701807
 31       0.309824062485
 32       0.141977070876
 33       0.031667301927
 34      -0.033156271679
 35       0.007517556803
 36      -0.291435242300
 37      -0.022294478256
 38      -0.014015517346
 39       0.054907064661
 40       0.020348709522
 41       0.100924886465
 42       0.054964620994
 43       0.064417029623
 44      -0.111022115109
 Sym=     1a
 Ene= 0.00000000000000E+00
 Spin= Alpha
 Occup= 0.000000
  1      -0.002532408514
  2      -0.024473459886
  3       0.018836483858
  4       0.057498624727
  5       0.055414710607
  6       0.060165560427
  7      -0.036499474258
  8       0.105857740261
  9      -0.021436101221
 10       0.000238023342
 11      -0.002130653901
 12      -0.005372673498
 13      -0.032822901356
 14      -0.035962710995
 15       0.013381447632
 16      -0.152753950831
 17       0.066052739978
 18       0.101751886885
 19      -0.067996370871
 20       0.042793277060
 21      -0.195414662972
 22       0.030492403314
 23      -0.024113113761
 24      -0.048625971204
 25       0.032615983276
 26      -0.075363449229
 27       0.063250145072
 28       0.155973848796
 29      -0.296310994815
 30       0.010081578370
 31      -0.060232752773
 32      -0.578593949776
 33       0.014890920291
 34      -0.053045955713
 35       0.042378168215
 36       0.085629249981
 37      -0.043599879348
 38      -0.074104491940
 39       0.002730363130
 40      -0.041213811604
 41       0.135144742160
 42      -0.024930444051
 43      -0.026863160748
 44      -0.620203562728
 Sym=     1a
 Ene= 0.00000000000000E+00
 Spin= Alpha
 Occup= 0.000000
  1       0.004817993376
  2       0.339346853948
  3       0.480101743306
  4      -0.035062603758
  5       0.000707221492
  6       0.240884556568
  7       0.334141839497
  8      -0.029987165079
  9       0.001137168350
 10       0.314801092820
 11       0.450647654403
 12      -0.036145090605
 13      -0.001396609692
 14       0.111135020041
 15       0.159241259540
 16      -0.010355809749
 17       0.001665785589
 18       0.193022473167
 19       0.271879458828
 20      -0.020786320504
 21       0.000714809177
 22       0.089735268594
 23       0.125050961048
 24      -0.008212579369
 25       0.003744701109
 26       0.023812620846
 27       0.040506973332
 28      -0.003004308649
 29       0.002533708233
 30       0.019524864794
 31       0.023474319559
 32      -0.005886328595
 33      -0.000204158242
 34       0.023986872753
 35       0.033096376724
 36      -0.001066344650
 37      -0.000345686370
 38      -0.000481396101
 39      -0.001538447585
 40       0.001700227454
 41       0.001477878406
 42      -0.020890446050
 43       0.022757646592
 44      -0.001203649549
 Sym=     1a
 Ene= 0.00000000000000E+00
 Spin= Alpha
 Occup= 0.000001
  1      -0.033950904685
  2      -0.008235759139
  3      -0.000725493533
  4      -0.054489029425
  5       0.007881222131
  6      -0.081759462886
  7       0.050519129268
  8      -0.099898341557
  9       0.026796447495
 10       0.048972218469
 11      -0.037120474250
 12       0.021381255432
 13      -0.019826014697
 14       0.051202782818
 15      -0.024842773507
 16       0.122703745685
 17      -0.008260101221
 18      -0.012575308197
 19       0.003147482622
 20      -0.034099876219
 21       0.105853403976
 22      -0.061522757671
 23       0.049938438123
 24       0.075802124040
 25       0.108687176597
 26      -0.060781625649
 27       0.039858778554
 28      -0.078459385678
 29       0.457809737685
 30      -0.315505270979
 31       0.196365027716
 32      -0.338984533653
 33       0.009488127959
 34       0.030895434021
 35      -0.021498899132
 36      -0.063831484208
 37       0.024270896809
 38       0.113424504212
 39       0.039526550559
 40       0.013155759261
 41      -0.032532710702
 42       0.448010661414
 43       0.453791202701
 44      -0.118062225801
 Sym=     1a
 Ene= 0.00000000000000E+00
 Spin= Alpha
 Occup= 0.000001
  1      -0.000092006395
  2       0.093241927010
  3       0.137166391724
  4      -0.009537675774
  5       0.001758637724
  6       0.306042420253
  7       0.427995006512
  8      -0.034403285344
  9       0.000682979559
 10      -0.207840702388
 11      -0.300874098804
 12       0.021146070201
 13       0.000078526287
 14       0.202762202972
 15       0.289687939128
 16      -0.023716402616
 17      -0.002568742629
 18      -0.307122390725
 19      -0.436173781210
 20       0.035023553480
 21      -0.002709428863
 22      -0.104861436829
 23      -0.147505130226
 24       0.012787510110
 25       0.000752672709
 26       0.051645664338
 27       0.074951486275
 28      -0.004732804337
 29      -0.002279333556
 30       0.105942347257
 31       0.144274137274
 32      -0.012545348949
 33      -0.000093399916
 34       0.122259582432
 35       0.172557331408
 36      -0.012415127425
 37      -0.001409341083
 38      -0.001205117883
 39       0.004537425932
 40       0.001007358820
 41      -0.000092830671
 42      -0.126223470873
 43       0.120554505635
 44      -0.000161040709
 Sym=     1a
 Ene= 0.00000000000000E+00
 Spin= Alpha
 Occup= 0.000003
  1       0.000472558421
  2      -0.105432406897
  3      -0.151956211066
  4       0.011182770132
  5      -0.000635701272
  6      -0.092498618223
  7      -0.130532575872
  8       0.013404607615
  9      -0.000712507887
 10      -0.016226594394
 11      -0.018592628441
 12       0.002634807399
 13      -0.000278710372
 14       0.033351575194
 15       0.048209606116
 16      -0.006762788283
 17       0.001783808065
 18       0.107970605256
 19       0.154498421234
 20      -0.012178566892
 21      -0.001028519531
 22       0.196735147569
 23       0.273608507958
 24      -0.023014669478
 25       0.002576154091
 26       0.304667640850
 27       0.436871880461
 28      -0.030191809990
 29       0.001426526701
 30       0.107227883499
 31       0.141049378507
 32      -0.012531523935
 33      -0.000224873543
 34       0.386806945968
 35       0.545493342086
 36      -0.038916711356
 37       0.001291315206
 38      -0.001456384287
 39      -0.002414295857
 40      -0.000722638239
 41       0.000043471689
 42      -0.105066274924
 43       0.100599766838
 44       0.001590222934
 Sym=     1a
 Ene= 0.00000000000000E+00
 Spin= Alpha
 Occup= 0.000004
  1      -0.001323377131
  2      -0.090307616664
  3      -0.121758959058
  4       0.010105586140
  5       0.001612793396
  6       0.097302001619
  7       0.136490870108
  8      -0.012715703793
  9       0.000838592655
 10      -0.113986780484
 11      -0.169841041694
 12       0.011575331809
 13      -0.000134347130
 14       0.249997562906
 15       0.355448575763
 16      -0.027693145982
 17      -0.001293226579
 18       0.034813868858
 19       0.050648833286
 20      -0.002697028651
 21       0.002341765954
 22       0.228223627319
 23       0.319574173167
 24      -0.022172568199
 25      -0.000492624693
 26       0.000954204638
 27      -0.003937545704
 28      -0.004196088551
 29      -0.001461673880
 30      -0.309925403620
 31      -0.434947912163
 32       0.039656222888
 33      -0.000221229464
 34      -0.002475353974
 35      -0.005922977882
 36      -0.002169863508
 37      -0.001361854855
 38       0.000612647179
 39       0.004760791404
 40       0.000749999610
 41      -0.001100030931
 42       0.369554333016
 43      -0.367543295966
 44      -0.000141491822
 Sym=     1a
 Ene= 0.00000000000000E+00
 Spin= Alpha
 Occup= 0.000005
  1       0.091194650792
  2       0.243488920919
  3      -0.179239708160
  4      -0.112556809876
  5      -0.197337619391
  6      -0.023617524297
  7       0.044385272745
  8       0.241844777666
  9      -0.089148622789
 10      -0.353289595472
 11       0.259132178826
 12       0.172320053009
 13       0.115239242520
 14       0.117167309270
 15      -0.079352385652
 16      -0.052027059272
 17       0.087693869123
 18      -0.196279280973
 19       0.124459051325
 20      -0.116326138722
 21       0.022453926948
 22      -0.000796651347
 23      -0.024888784539
 24      -0.326486137971
 25      -0.161012379157
 26       0.054005285051
 27      -0.025479744229
 28       0.193121556410
 29       0.037650350180
 30      -0.084909505867
 31       0.053137750055
 32      -0.016248127280
 33       0.023002565384
 34      -0.060821691599
 35       0.045695347341
 36       0.044812824042
 37       0.196418533890
 38      -0.109165203455
 39      -0.414638881966
 40      -0.041708461325
 41      -0.131361350114
 42       0.072725122083
 43       0.067606119263
 44      -0.031088422669
 Sym=     1a
 Ene= 0.00000000000000E+00
 Spin= Alpha
 Occup= 0.000011
  1       0.000329514420
  2       0.129562734785
  3       0.182670822612
  4      -0.013782594109
  5      -0.000346548569
  6      -0.011465748269
  7      -0.015884373311
  8      -0.000470145840
  9       0.000341664606
 10       0.079047224756
 11       0.112531852627
 12      -0.008819012800
 13       0.000273805906
 14      -0.210235785716
 15      -0.296931327976
 16       0.025538503741
 17      -0.000324758302
 18      -0.103270779706
 19      -0.149315905234
 20       0.011269532973
 21      -0.000618748259
 22      -0.255078036727
 23      -0.356613594994
 24       0.028474261732
 25      -0.001038516780
 26       0.030582399229
 27       0.040301655360
 28      -0.003955878023
 29      -0.001215938068
 30      -0.223052427341
 31      -0.313762685521
 32       0.026913205730
 33      -0.000026077700
 34       0.297719079889
 35       0.418524282442
 36      -0.033896709374
 37      -0.000643727345
 38       0.000798190692
 39      -0.000451048930
 40       0.000611225986
 41       0.001216689679
 42       0.278787649437
 43      -0.277394380009
 44      -0.001389893640
 Sym=     1a
 Ene= 0.00000000000000E+00
 Spin= Alpha
 Occup= 0.000086
  1      -0.046587839299
  2      -0.096246252230
  3       0.064618073114
  4      -0.091578103078
  5       0.065020123312
  6       0.096856247494
  7      -0.049143018917
  8       0.253206823901
  9      -0.024223488513
 10       0.164580024843
 11      -0.117039332819
 12      -0.060881274396
 13      -0.044710031196
 14      -0.179920836101
 15       0.095481854134
 16      -0.347736067215
 17      -0.038784186630
 18      -0.377337719246
 19       0.274724543724
 20       0.084936977443
 21       0.056556489554
 22       0.394326630841
 23      -0.282850960229
 24       0.007153192332
 25      -0.016232801480
 26       0.027195802886
 27      -0.025968929927
 28      -0.078571770056
 29       0.025087929570
 30      -0.073412501218
 31       0.052037095517
 32      -0.005177595969
 33       0.005695995903
 34       0.058351027412
 35      -0.041515896234
 36      -0.014015663867
 37       0.079327931260
 38      -0.186232208961
 39       0.200399150073
 40       0.028732024811
 41      -0.333934907661
 42       0.048605901427
 43       0.049753474290
 44      -0.028003734037
 Sym=     1a
 Ene= 0.00000000000000E+00
 Spin= Alpha
 Occup= 0.000883
  1      -0.035758286133
  2      -0.054434506896
  3       0.041233113765
  4       0.041876522923
  5      -0.066158785689
  6      -0.045891350050
  7       0.004825523247
  8      -0.333014987118
  9      -0.028654418425
 10       0.095293120563
 11      -0.082865005193