[Molden Format]
[Title]
 Molden file created by orca_2mkl for BaseName=1

[Atoms] AU
C    1   6       3.455707967599999986     -2.127235393099999872     -0.220502855999999997
C    2   6       1.626550227200000087     -0.732285696000000041      1.033690725200000049
C    3   6       5.337677111699999699     -3.352634675500000050      1.140142303800000034
C    4   6       1.677106548300000055     -0.560791151300000013      3.648717634900000117
C    5   6       5.386684916000000101     -3.181111497399999877      3.748039690700000204
C    6   6       3.556148240100000191     -1.783529398700000046      5.022508405600000003
C    7   6       3.685207524900000031     -1.654305047300000053      7.850615194699999577
C    8   6       1.703796483100000092     -0.139215211899999997      9.236466583700000399
O    9   8       5.340700393899999732     -2.742072356600000038      8.992034669500000632
H   10   1       3.416872130299999810     -2.261193464399999797     -2.257798908199999843
H   11   1       0.161942995799999989      0.221404338499999992     -0.021077930200000001
H   12   1       6.762859702900000158     -4.439365135200000090      0.162424254200000007
H   13   1       0.244247486799999997      0.529738112099999991      4.608166463999999962
H   14   1       6.829876841399999954     -4.117408608599999909      4.844721672100000376
H   15   1      -0.174746229499999989     -0.890118713200000022      8.855770738400000397
H   16   1       1.726124855999999985      1.822971790199999997      8.615554787200000675
H   17   1       2.089592014299999967     -0.233596939799999986     11.246844992699999821
[GTO]
  1 0
s   3 1.0
       71.6168370000         0.1543289700
       13.0450960000         0.5353281400
        3.5305122000         0.4446345400
s   3 1.0
        2.9412494000        -0.0999672301
        0.6834831000         0.3995128304
        0.2222899000         0.7001154703
p   3 1.0
        2.9412494000         0.1559162721
        0.6834831000         0.6076837282
        0.2222899000         0.3919573954

  2 0
s   3 1.0
       71.6168370000         0.1543289700
       13.0450960000         0.5353281400
        3.5305122000         0.4446345400
s   3 1.0
        2.9412494000        -0.0999672301
        0.6834831000         0.3995128304
        0.2222899000         0.7001154703
p   3 1.0
        2.9412494000         0.1559162721
        0.6834831000         0.6076837282
        0.2222899000         0.3919573954

  3 0
s   3 1.0
       71.6168370000         0.1543289700
       13.0450960000         0.5353281400
        3.5305122000         0.4446345400
s   3 1.0
        2.9412494000        -0.0999672301
        0.6834831000         0.3995128304
        0.2222899000         0.7001154703
p   3 1.0
        2.9412494000         0.1559162721
        0.6834831000         0.6076837282
        0.2222899000         0.3919573954

  4 0
s   3 1.0
       71.6168370000         0.1543289700
       13.0450960000         0.5353281400
        3.5305122000         0.4446345400
s   3 1.0
        2.9412494000        -0.0999672301
        0.6834831000         0.3995128304
        0.2222899000         0.7001154703
p   3 1.0
        2.9412494000         0.1559162721
        0.6834831000         0.6076837282
        0.2222899000         0.3919573954

  5 0
s   3 1.0
       71.6168370000         0.1543289700
       13.0450960000         0.5353281400
        3.5305122000         0.4446345400
s   3 1.0
        2.9412494000        -0.0999672301
        0.6834831000         0.3995128304
        0.2222899000         0.7001154703
p   3 1.0
        2.9412494000         0.1559162721
        0.6834831000         0.6076837282
        0.2222899000         0.3919573954

  6 0
s   3 1.0
       71.6168370000         0.1543289700
       13.0450960000         0.5353281400
        3.5305122000         0.4446345400
s   3 1.0
        2.9412494000        -0.0999672301
        0.6834831000         0.3995128304
        0.2222899000         0.7001154703
p   3 1.0
        2.9412494000         0.1559162721
        0.6834831000         0.6076837282
        0.2222899000         0.3919573954

  7 0
s   3 1.0
       71.6168370000         0.1543289700
       13.0450960000         0.5353281400
        3.5305122000         0.4446345400
s   3 1.0
        2.9412494000        -0.0999672301
        0.6834831000         0.3995128304
        0.2222899000         0.7001154703
p   3 1.0
        2.9412494000         0.1559162721
        0.6834831000         0.6076837282
        0.2222899000         0.3919573954

  8 0
s   3 1.0
       71.6168370000         0.1543289700
       13.0450960000         0.5353281400
        3.5305122000         0.4446345400
s   3 1.0
        2.9412494000        -0.0999672301
        0.6834831000         0.3995128304
        0.2222899000         0.7001154703
p   3 1.0
        2.9412494000         0.1559162721
        0.6834831000         0.6076837282
        0.2222899000         0.3919573954

  9 0
s   3 1.0
      130.7093200000         0.1543289687
       23.8088610000         0.5353281356
        6.4436083000         0.4446345363
s   3 1.0
        5.0331513000        -0.0999672287
        1.1695961000         0.3995128246
        0.3803890000         0.7001154607
p   3 1.0
        5.0331513000         0.1559162685
        1.1695961000         0.6076837141
        0.3803890000         0.3919573862

 10 0
s   3 1.0
        3.4252509100         0.1543289707
        0.6239137300         0.5353281425
        0.1688554000         0.4446345419

 11 0
s   3 1.0
        3.4252509100         0.1543289707
        0.6239137300         0.5353281425
        0.1688554000         0.4446345419

 12 0
s   3 1.0
        3.4252509100         0.1543289707
        0.6239137300         0.5353281425
        0.1688554000         0.4446345419

 13 0
s   3 1.0
        3.4252509100         0.1543289707
        0.6239137300         0.5353281425
        0.1688554000         0.4446345419

 14 0
s   3 1.0
        3.4252509100         0.1543289707
        0.6239137300         0.5353281425
        0.1688554000         0.4446345419

 15 0
s   3 1.0
        3.4252509100         0.1543289707
        0.6239137300         0.5353281425
        0.1688554000         0.4446345419

 16 0
s   3 1.0
        3.4252509100         0.1543289707
        0.6239137300         0.5353281425
        0.1688554000         0.4446345419

 17 0
s   3 1.0
        3.4252509100         0.1543289707
        0.6239137300         0.5353281425
        0.1688554000         0.4446345419

[MO]
 Sym=     1a
 Ene= -2.02712353155550E+01
 Spin= Alpha
 Occup= 2.000000
  1      -0.000000173088
  2       0.000000128651
  3      -0.000002905994
  4       0.000002380433
  5       0.000003996445
  6       0.000001384815
  7      -0.000024397518
  8      -0.000003972919
  9       0.000001543151
 10      -0.000016020023
 11       0.000002308085
 12      -0.000025035274
 13      -0.000015472528
 14       0.000009413536
 15      -0.000019067541
 16       0.000004038999
 17       0.000039842833
 18       0.000036324053
 19      -0.000030341519
 20      -0.000059253775
 21      -0.000005683614
 22       0.000011034207
 23       0.000162616445
 24      -0.000118723038
 25      -0.000047549411
 26      -0.000026603249
 27       0.000364706106
 28       0.000394316387
 29      -0.000266428841
 30       0.000177228410
 31       0.000546860559
 32      -0.007524488047
 33      -0.004720121843
 34       0.003102122068
 35      -0.003247049464
 36      -0.000027643379
 37       0.000356279407
 38       0.000334083382
 39      -0.000208695148
 40       0.000346538975
 41       0.994239434936
 42       0.026281317952
 43      -0.004193738159
 44       0.002754257834
 45      -0.002907710771
 46       0.000000836473
 47       0.000000774374
 48       0.000009791419
 49      -0.000017242517
 50      -0.000316369687
 51       0.000030443890
 52       0.000029699329
 53      -0.000245505492
 Sym=     1a
 Ene= -1.11212760189162E+01
 Spin= Alpha
 Occup= 2.000000
  1       0.000026772971
  2      -0.000007121564
  3       0.000000068211
  4       0.000001151408
  5       0.000015085187
  6       0.000042322477
  7       0.000047157705
  8       0.000027561488
  9      -0.000016891839
 10       0.000032254319
 11       0.000053946394
 12       0.000110680261
 13      -0.000031048607
 14       0.000027963606
 15       0.000074385224
 16       0.000173503285
 17      -0.000138006420
 18       0.000030130397
 19      -0.000024874290
 20      -0.000044912227
 21       0.000326202983
 22      -0.000278340978
 23       0.000003670035
 24       0.000004780245
 25       0.000093649614
 26       0.001126941042
 27       0.005883138529
 28       0.000362450647
 29       0.000064171301
 30       0.004123487699
 31      -0.992506154465
 32      -0.033220973750
 33      -0.000532773774
 34       0.000362938139
 35      -0.000238981054
 36       0.001335400893
 37       0.005536049520
 38       0.002997349964
 39      -0.002268595176
 40      -0.001823328702
 41      -0.000133618318
 42       0.005993888954
 43      -0.001228812445
 44       0.000806766590
 45      -0.000850845428
 46       0.000007237227
 47       0.000007212269
 48       0.000002883848
 49       0.000104278245
 50       0.000323208412
 51       0.000139329520
 52       0.000134472478
 53       0.000078599883
 Sym=     1a
 Ene= -1.10490382055633E+01
 Spin= Alpha
 Occup= 2.000000
  1       0.000010550796
  2       0.000003506938
  3       0.000000043826
  4       0.000000360168
  5       0.000004586166
  6      -0.000207991595
  7      -0.000065523129
  8      -0.000000047964
  9      -0.000003656399
 10      -0.000042686829
 11      -0.000028194219
 12      -0.000010416291
 13      -0.000000763385
 14       0.000000003722
 15      -0.000006568947
 16      -0.001535963883
 17      -0.000032563204
 18      -0.000053142226
 19       0.000025302360
 20      -0.000177214838
 21      -0.000442563358
 22      -0.000065604137
 23       0.000017169726
 24      -0.000016755814
 25      -0.000057923286
 26      -0.001828250462
 27       0.000132206977
 28      -0.000021313654
 29       0.000014664895
 30      -0.000010088023
 31       0.002306760948
 32      -0.006009707173
 33       0.002999499638
 34      -0.002305786889
 35      -0.002247094468
 36       0.991882041830
 37       0.038211212663
 38       0.000030239557
 39      -0.000037232614
 40      -0.000066639004
 41      -0.000022889156
 42       0.000302413824
 43      -0.000175915597
 44       0.000132072853
 45       0.000083912196
 46       0.000000378366
 47       0.000006581406
 48       0.000001428849
 49      -0.000136056427
 50      -0.000013450684
 51      -0.007009185114
 52      -0.007007998285
 53      -0.007026285499
 Sym=     1a
 Ene= -1.10395507943071E+01
 Spin= Alpha
 Occup= 2.000000
  1      -0.984870256078
  2      -0.035684454757
  3      -0.000026579759
  4      -0.000061643630
  5      -0.001021859049
  6      -0.049134159980
  7       0.004752982019
  8       0.003112787467
  9      -0.002401812261
 10      -0.002486451384
 11      -0.039743478689
 12       0.005634911363
 13      -0.003200468465
 14       0.002085429405
 15      -0.002294135086
 16       0.089774240114
 17       0.003067738782
 18      -0.000021928571
 19      -0.000012048078
 20      -0.000346915216
 21       0.009569344208
 22       0.000060030096
 23       0.000081612603
 24      -0.000077083012
 25      -0.000243525359
 26       0.048889497933
 27       0.001153582558
 28       0.000257114923
 29      -0.000184015445
 30      -0.000020978961
 31       0.000088426803
 32      -0.000225101939
 33       0.000003730177
 34       0.000009775511
 35       0.000158174545
 36       0.000235660965
 37       0.000016054039
 38      -0.000001877111
 39       0.000002478932
 40       0.000013922176
 41       0.000000173736
 42       0.000006820250
 43      -0.000003703930
 44       0.000002390862
 45      -0.000003056155
 46       0.006787023883
 47       0.000250115241
 48       0.000175175653
 49      -0.000526960280
 50       0.000018300305
 51      -0.000005549607
 52      -0.000005674776
 53      -0.000009910552
 Sym=     1a
 Ene= -1.10392549538095E+01
 Spin= Alpha
 Occup= 2.000000
  1      -0.093845553881
  2      -0.003307356977
  3      -0.000163596550
  4       0.000122098520
  5       0.000077439138
  6      -0.062706902966
  7       0.005461573907
  8       0.000426306451
  9       0.000028765731
 10       0.004174295805
 11       0.009113335821
 12       0.001017989751
 13      -0.000472060078
 14       0.000323754794
 15      -0.000134498205
 16      -0.973018959370
 17      -0.034334305055
 18      -0.000252857767
 19       0.000235179009
 20       0.000682481675
 21       0.005330489138
 22       0.001026551144
 23      -0.000534355461
 24       0.000400777157
 25       0.000280812809
 26      -0.158460268295
 27       0.001206662388
 28      -0.003130686151
 29       0.002044171652
 30      -0.002205849247
 31      -0.000542833079
 32       0.000767276295
 33      -0.000051448779
 34      -0.000012421660
 35      -0.000624429072
 36      -0.001834524158
 37      -0.000073795255
 38       0.000025208847
 39      -0.000026819293
 40      -0.000115639366
 41      -0.000006502388
 42       0.000032774945
 43      -0.000006634950
 44       0.000003912120
 45      -0.000011153775
 46       0.000744720885
 47       0.000339039199
 48       0.000010916189
 49       0.006740432676
 50       0.000060794767
 51      -0.000000554473
 52      -0.000001355568
 53       0.000067914100
 Sym=     1a
 Ene= -1.10383999466014E+01
 Spin= Alpha
 Occup= 2.000000
  1       0.035975773232
  2       0.001400871807
  3      -0.000075800261
  4       0.000046043069
  5      -0.000097494348
  6      -0.027191143593
  7       0.000153703701
  8      -0.000164542819
  9       0.000181943098
 10       0.000824951137
 11       0.000217015482
 12      -0.000567129436
 13       0.000132419360
 14      -0.000110015544
 15      -0.000205407905
 16      -0.159284597128
 17      -0.012808017522
 18      -0.003342901290
 19       0.002189773370
 20      -0.002270891171
 21       0.080954598189
 22      -0.004225382943
 23       0.003084306029
 24      -0.002353466768
 25      -0.002133300823
 26       0.974772448096
 27       0.036560584437
 28      -0.000681355579
 29       0.000379681457
 30      -0.001251098757
 31       0.002096198117
 32      -0.005988595927
 33       0.000075481625
 34       0.000268254880
 35       0.004114323508
 36       0.001597155589
 37       0.000248358942
 38       0.000012845190
 39      -0.000005795626
 40       0.000025905150
 41      -0.000022749962
 42       0.000323911015
 43      -0.000091906043
 44       0.000050016415
 45      -0.000196785475
 46      -0.000303069374
 47       0.000083975723
 48      -0.000063311933
 49       0.001170626013
 50      -0.000468489621
 51      -0.000102284386
 52      -0.000105911020
 53      -0.000096561287
 Sym=     1a
 Ene= -1.10366579667245E+01
 Spin= Alpha
 Occup= 2.000000
  1       0.019885458693
  2       0.002415936753
  3      -0.001691693253
  4       0.001230858222
  5       0.000411284322
  6      -0.372840904840
  7      -0.014304929100
  8      -0.000546170592
  9       0.000346062097
 10      -0.000514918514
 11       0.179227348285
 12      -0.000238384549
 13      -0.000079905975
 14      -0.000250346465
 15      -0.003882713165
 16       0.041252478278
 17       0.005059748968
 18       0.000270165686
 19      -0.000306191858
 20      -0.001444445543
 21       0.897270102800
 22       0.032443979045
 23      -0.001097714645
 24       0.000807940708
 25       0.000396318456
 26      -0.078147872572
 27      -0.009789411670
 28      -0.002622786480
 29       0.002036414477
 30       0.002250240426
 31       0.000177801794
 32       0.000622211303
 33      -0.000132785441
 34       0.000063581938
 35      -0.000392962275
 36       0.000256661793
 37      -0.000078739972
 38      -0.000025201460
 39       0.000021599273
 40       0.000048027128
 41      -0.000001568300
 42       0.000050871342
 43      -0.000004040552
 44       0.000005031262
 45       0.000025934835
 46      -0.000241202988
 47       0.002518610115
 48      -0.001116206504
 49      -0.000425806083
 50      -0.006168388625
 51       0.000011736307
 52       0.000012047457
 53       0.000000649242
 Sym=     1a
 Ene= -1.10365434555067E+01
 Spin= Alpha
 Occup= 2.000000
  1       0.047986541876
  2       0.008699392852
  3      -0.002767157002
  4       0.002138816648
  5       0.002258066842
  6      -0.915080956598
  7      -0.034538541312
  8      -0.000937821856
  9       0.000609604849
 10      -0.000688504887
 11      -0.039797178753
 12       0.000690004310
 13       0.000208342415
 14      -0.000001250073
 15       0.001850822713
 16       0.049175520695
 17       0.008373448509
 18       0.000007675895
 19      -0.000343448480
 20      -0.004262318704
 21      -0.374789721744
 22      -0.013512513620
 23       0.000232162886
 24      -0.000170217947
 25      -0.000077606135
 26       0.011649347839
 27       0.002550347628
 28       0.001376317149
 29      -0.001035612091
 30      -0.000764767383
 31      -0.000160483399
 32      -0.000051262323
 33       0.000027143127
 34      -0.000017783636
 35       0.000018663993
 36      -0.000273134684
 37       0.000028696686
 38       0.000002587960
 39      -0.000005069293
 40      -0.000038274349
 41       0.000001180100
 42      -0.000026041498
 43      -0.000000484668
 44      -0.000000086267
 45      -0.000004755305
 46      -0.000393826284
 47       0.006368399971
 48       0.000325987057
 49      -0.000397121464
 50       0.002635981377
 51       0.000002643288
 52       0.000003032304
 53       0.000008303261
 Sym=     1a
 Ene= -1.10356818770285E+01
 Spin= Alpha
 Occup= 2.000000
  1       0.040208805276
  2       0.008873393994
  3       0.003052665506
  4      -0.001963411425
  5       0.002513988295
  6      -0.029853874680
  7      -0.001627919823
  8      -0.000191055905
  9       0.000147307021
 10       0.000151143535
 11      -0.974162451465
 12      -0.037668749975
 13       0.000982426415
 14      -0.000804353795
 15      -0.001369947183
 16      -0.007287847203
 17       0.000243187488
 18       0.000201766292
 19      -0.000156993203
 20      -0.000177425609
 21       0.179285973457
 22       0.013977350750
 23      -0.000401274155
 24      -0.000073448968
 25      -0.004520108545
 26      -0.018162314243
 27      -0.002200397119
 28      -0.000647125197
 29       0.000489613605
 30       0.000392287303
 31      -0.000041682533
 32       0.000214469276
 33       0.000000328054
 34      -0.000011012702
 35      -0.000139073980
 36       0.000001649897
 37      -0.000012386170
 38      -0.000000733040
 39       0.000001105658
 40       0.000007612830
 41      -0.000002131860
 42       0.000011472969
 43       0.000010134100
 44      -0.000007551618
 45      -0.000005021723
 46      -0.000389328676
 47       0.000289319818
 48       0.006759196510
 49       0.000088926782
 50      -0.001345463630
 51       0.000001329612
 52       0.000001357771
 53       0.000000711570
 Sym=     1a
 Ene= -1.32965508332219E+00
 Spin= Alpha
 Occup= 2.000000
  1      -0.000836256069
  2       0.001923117337
  3       0.000112331389
  4      -0.000019956737
  5       0.000750189699
  6      -0.001231847349
  7       0.002956350856
  8       0.000404097650
  9      -0.000183776364
 10       0.001294315681
 11      -0.001692345517
 12       0.004050977489
 13      -0.000344280185
 14       0.000393698702
 15       0.001901414646
 16      -0.004835502098
 17       0.011702048320
 18       0.004117855202
 19      -0.002649125442
 20       0.003428599506
 21      -0.008496203730
 22       0.019898012088
 23      -0.004996026765
 24       0.004078225591
 25       0.006910712626
 26      -0.023838209976
 27       0.056674501008
 28       0.003865777379
 29      -0.000555212840
 30       0.028060965273
 31      -0.129510756069
 32       0.293422283785
 33       0.112721813698
 34      -0.074224884618
 35       0.075903676562
 36      -0.021857769073
 37       0.054499670262
 38       0.020647576897
 39      -0.015627906350
 40      -0.012231905237
 41      -0.213442725521
 42       0.742009632906
 43      -0.123709901665
 44       0.081188970089
 45      -0.086498251672
 46       0.000193449981
 47       0.000282309108
 48       0.000418537136
 49       0.002038869269
 50       0.007100682460
 51       0.005699367092
 52       0.005679424278
 53       0.009372588336
 Sym=     1a
 Ene= -1.10588838283497E+00
 Spin= Alpha
 Occup= 2.000000
  1      -0.100475034332
  2       0.252510640144
  3       0.000192690173
  4       0.004653589294
  5       0.060528088682
  6      -0.102351271864
  7       0.256802025450
  8       0.043302608469
  9      -0.027989131870
 10       0.033858297785
 11      -0.100235878935
 12       0.251307285750
 13      -0.042158153159
 14       0.032261362453
 15       0.030338696288
 16      -0.107064893057
 17       0.269888861467
 18       0.044574485987
 19      -0.033564029531
 20      -0.024838996460
 21      -0.102828419115
 22       0.258464663892
 23      -0.045999515969
 24       0.030273379098
 25      -0.029210017126
 26      -0.110539818151
 27       0.278789009987
 28      -0.003795759099
 29      -0.001714501271
 30      -0.055450314845
 31      -0.017159312923
 32       0.048836396356
 33      -0.026157889338
 34       0.014201637727
 35      -0.056122400533
 36      -0.011219285980
 37       0.029842345371
 38       0.002383978437
 39      -0.002362816461
 40      -0.008599238000
 41       0.026743386228
 42      -0.099568593246
 43       0.008386125886
 44      -0.006282325492
 45      -0.004078431097
 46       0.044052460566
 47       0.045040518614
 48       0.043632001293
 49       0.049137470518
 50       0.043597953414
 51       0.007849963628
 52       0.007916660223
 53       0.003109949558
 Sym=     1a
 Ene= -9.91381406092362E-01
 Spin= Alpha
 Occup= 2.000000
  1      -0.112071082767
  2       0.297479492648
  3       0.016423848890
  4      -0.009025577260
  5       0.032987804925
  6      -0.046378781291
  7       0.122139535109
  8       0.044031309179
  9      -0.036214586993
 10      -0.063469058897
 11      -0.087839768148
 12       0.232304943167
 13      -0.042768750632
 14       0.027370946379
 15      -0.036972948949
 16       0.065467791166
 17      -0.175650950585
 18      -0.037159776724
 19       0.020133966689
 20      -0.078452610952
 21       0.008538859240
 22      -0.024454777012
 23       0.035957815155
 24      -0.032027853303
 25      -0.082897502847
 26       0.113394048682
 27      -0.303070624255
 28       0.032405507467
 29      -0.025253648154
 30      -0.029665892509
 31       0.073991458719
 32      -0.209716581362
 33       0.104779551543
 34      -0.068499389100
 35       0.075741856455
 36       0.109603064328
 37      -0.303750418313
 38      -0.017181330524
 39       0.014820333278
 40       0.032546758038
 41      -0.057930090663
 42       0.225597077266
 43       0.009146203246
 44      -0.005955223958
 45       0.006684086680
 46       0.074532047608
 47       0.029942535975
 48       0.057749908308
 49      -0.055725421820
 50      -0.005618164453
 51      -0.080520184144
 52      -0.080693834126
 53      -0.065444658953
 Sym=     1a
 Ene= -9.67364456763274E-01
 Spin= Alpha
 Occup= 2.000000
  1      -0.043860687189
  2       0.117765541102
  3      -0.100223945196
  4       0.071440048905
  5       0.005647582272
  6      -0.141249938244
  7       0.378529840829
  8       0.008667351895
  9      -0.003069725826
 10       0.038698150981
 11       0.097128880633
 12      -0.260217277903
 13      -0.026309071611
 14       0.011233426306
 15      -0.093604341274
 16      -0.098992000855
 17       0.265814166200
 18      -0.029707189912
 19       0.013786134147
 20      -0.091522846513
 21       0.142973217457
 22      -0.383454654292
 23       0.011228300267
 24      -0.005173780992
 25       0.035044045883
 26       0.046906573620
 27      -0.126116679995
 28      -0.104847119334
 29       0.074671159147
 30       0.004762795543
 31       0.002971237276
 32      -0.009319263201
 33      -0.009872572706
 34       0.010656018477
 35       0.047006179377
 36      -0.021564126698
 37       0.059902310909
 38       0.000986329397
 39      -0.000806539748
 40      -0.001239648831
 41      -0.010654565150
 42       0.042123316375
 43      -0.008446269744
 44       0.007486248881
 45       0.019183109960
 46       0.032186526924
 47       0.103677072916
 48      -0.070272724288
 49       0.075694244507
 50      -0.102138837027
 51       0.016770916321
 52       0.016813016703
 53       0.016387117024
 Sym=     1a
 Ene= -9.42759126167107E-01
 Spin= Alpha
 Occup= 2.000000
  1       0.082785326054
  2      -0.225085495294
  3      -0.035376530961
  4       0.024354320665
  5      -0.008929522554
  6      -0.005438997945
  7       0.014199412016
  8      -0.033482764382
  9       0.029996252993
 10       0.079282771418
 11       0.072905506424
 12      -0.197701066960
 13       0.029688480743
 14      -0.017335257921
 15       0.046717701854
 16      -0.079054966849
 17       0.214744144423
 18       0.030287718060
 19      -0.020754423700
 20       0.009051456113
 21      -0.021690232807
 22       0.058103534344
 23      -0.035724421263
 24       0.031024849437
 25       0.072425919760
 26      -0.074993658429
 27       0.202964487556
 28      -0.011402539198
 29       0.003713619284
 30      -0.055075273866
 31       0.042801534643
 32      -0.119340485422
 33       0.107873052762
 34      -0.083399104126
 35      -0.087112988357
 36       0.171759733404
 37      -0.485305373427
 38      -0.012635434172
 39       0.009676256480
 40       0.006688679128
 41      -0.029945814575
 42       0.119394168401
 43       0.028458040858
 44      -0.022840808833
 45      -0.033853562770
 46      -0.066867677591
 47       0.003218164628
 48      -0.058373892438
 49       0.049842274330
 50       0.019406084459
 51      -0.132363246675
 52      -0.132282424159
 53      -0.132537574993
 Sym=     1a
 Ene= -8.01561114079592E-01
 Spin= Alpha
 Occup= 2.000000
  1      -0.109858312832
  2       0.319085251459
  3      -0.023748053439
  4       0.011131841396
  5      -0.071779604830
  6       0.023681459730
  7      -0.067097757582
  8       0.079779252564
  9      -0.069408002605
 10      -0.162672783781
 11       0.049958136149
 12      -0.142859159355
 13      -0.085016144513
 14       0.048926395524
 15      -0.142671539376
 16       0.077547985777
 17      -0.222932277150
 18       0.071972482631
 19      -0.043053636507
 20       0.100373142532
 21       0.058882920915
 22      -0.168716822222
 23      -0.063445274653
 24       0.055438340737
 25       0.132906250868
 26      -0.087049637362
 27       0.255285862055
 28       0.024504859401
 29      -0.004894607325
 30       0.159335645103
 31      -0.080862120461
 32       0.253667685332
 33      -0.014894375408
 34      -0.003681928131
 35      -0.182936291748
 36       0.049109727986
 37      -0.146846450497
 38       0.039546781272
 39      -0.032731284982
 40      -0.060125465079
 41       0.043744219799
 42      -0.187746262406
 43      -0.022978827641
 44       0.009048778999
 45      -0.093331158396
 46       0.157760270799
 47      -0.028622197404
 48      -0.062807316437
 49      -0.100890041367
 50      -0.063057065494
 51      -0.056733307720
 52      -0.056603851537
 53      -0.080723828045
 Sym=     1a
 Ene= -7.78200247278840E-01
 Spin= Alpha
 Occup= 2.000000
  1      -0.011763353184
  2       0.034822615742
  3       0.186168283927
  4      -0.132154716567
  5      -0.003622662881
  6       0.102733612021
  7      -0.300552598450
  8       0.016058653030
  9      -0.002180224009
 10       0.116061932812
 11      -0.093012732255
 12       0.272023373080
 13      -0.009134351413
 14      -0.005118658253
 15      -0.146614810350
 16      -0.090748272422
 17       0.266781672323
 18       0.007719120824
 19       0.006632959292
 20       0.153144383273
 21       0.102333943580
 22      -0.299870930103
 23      -0.012080137948
 24      -0.001352261917
 25      -0.125624587273
 26      -0.008809376440
 27       0.026411413832
 28      -0.191860405581
 29       0.136424470610
 30       0.006358820839
 31      -0.007389309994
 32       0.025167477397
 33      -0.015511168628
 34       0.010421683500
 35      -0.006844613789
 36       0.029841914512
 37      -0.091778105265
 38       0.013231545294
 39      -0.012165841984
 40      -0.037066259861
 41      -0.010322940952
 42       0.045176401425
 43      -0.005534461498
 44       0.005804230950
 45       0.024514159387
 46       0.018330808398
 47      -0.157053632166
 48       0.141944913284
 49       0.142795834980
 50      -0.153521105467
 51      -0.027635607342
 52      -0.027149933853
 53      -0.049268003209
 Sym=     1a
 Ene= -7.03646271919862E-01
 Spin= Alpha
 Occup= 2.000000
  1      -0.039743879075
  2       0.116544774073
  3       0.002376119644
  4       0.002659725641
  5       0.054742778977
  6       0.051148442584
  7      -0.163213974887
  8       0.160694179042
  9      -0.111300761450
 10       0.031647231073
 11       0.050537380450
 12      -0.161300920844
 13      -0.156880256082
 14       0.112388456224
 15       0.015837686092
 16      -0.002237015275
 17       0.001391303825
 18       0.168593325925
 19      -0.116437006944
 20       0.037287769127
 21       0.002027425512
 22      -0.011885157310
 23      -0.163212383532
 24       0.117883607680
 25       0.028143505186
 26      -0.041532217170
 27       0.117421912304
 28      -0.008745577265
 29      -0.014247441685
 30      -0.260422443681
 31       0.099440291259
 32      -0.324457463265
 33       0.034799558619
 34      -0.017242883885
 35       0.096132842307
 36      -0.038069249779
 37       0.118519326509
 38      -0.082326650738
 39       0.066787080518
 40       0.107997820142
 41      -0.053429420412
 42       0.242785901112
 43       0.081248726987