
                                 *****************
                                 * O   R   C   A *
                                 *****************

           --- An Ab Initio, DFT and Semiempirical electronic structure package ---

                  #######################################################
                  #                        -***-                        #
                  #          Department of theory and spectroscopy      #
                  #               Directorship: Frank Neese             #
                  #        Max Planck Institute fuer Kohlenforschung    #
                  #                Kaiser Wilhelm Platz 1               #
                  #                 D-45470 Muelheim/Ruhr               #
                  #                      Germany                        #
                  #                                                     #
                  #                  All rights reserved                #
                  #                        -***-                        #
                  #######################################################


                         Program Version 4.2.1 -  RELEASE  -


 With contributions from (in alphabetic order):
   Daniel Aravena         : Magnetic Suceptibility
   Michael Atanasov       : Ab Initio Ligand Field Theory (pilot matlab implementation)
   Alexander A. Auer      : GIAO ZORA, VPT2
   Ute Becker             : Parallelization
   Giovanni Bistoni       : ED, misc. LED, open-shell LED, HFLD
   Martin Brehm           : Molecular dynamics
   Dmytro Bykov           : SCF Hessian
   Vijay G. Chilkuri      : MRCI spin determinant printing, contributions to CSF-ICE
   Dipayan Datta          : RHF DLPNO-CCSD density
   Achintya Kumar Dutta   : EOM-CC, STEOM-CC
   Dmitry Ganyushin       : Spin-Orbit,Spin-Spin,Magnetic field MRCI
   Miquel Garcia          : C-PCM Hessian, Gaussian charge scheme
   Yang Guo               : DLPNO-NEVPT2, CIM, IAO-localization
   Andreas Hansen         : Spin unrestricted coupled pair/coupled cluster methods
   Benjamin Helmich-Paris : CASSCF linear response (MC-RPA)
   Lee Huntington         : MR-EOM, pCC
   Robert Izsak           : Overlap fitted RIJCOSX, COSX-SCS-MP3, EOM
   Christian Kollmar      : KDIIS, OOCD, Brueckner-CCSD(T), CCSD density
   Simone Kossmann        : Meta GGA functionals, TD-DFT gradient, OOMP2, MP2 Hessian
   Martin Krupicka        : AUTO-CI
   Lucas Lang             : DCDCAS
   Dagmar Lenk            : GEPOL surface, SMD
   Dimitrios Liakos       : Extrapolation schemes; Compound Job, initial MDCI parallelization
   Dimitrios Manganas     : Further ROCIS development; embedding schemes
   Dimitrios Pantazis     : SARC Basis sets
   Taras Petrenko         : DFT Hessian,TD-DFT gradient, ASA, ECA, R-Raman, ABS, FL, XAS/XES, NRVS
   Peter Pinski           : DLPNO-MP2, DLPNO-MP2 Gradient
   Christoph Reimann      : Effective Core Potentials
   Marius Retegan         : Local ZFS, SOC
   Christoph Riplinger    : Optimizer, TS searches, QM/MM, DLPNO-CCSD(T), (RO)-DLPNO pert. Triples
   Tobias Risthaus        : Range-separated hybrids, TD-DFT gradient, RPA, STAB
   Michael Roemelt        : Original ROCIS implementation
   Masaaki Saitow         : Open-shell DLPNO-CCSD energy and density
   Barbara Sandhoefer     : DKH picture change effects
   Avijit Sen             : IP-ROCIS
   Kantharuban Sivalingam : CASSCF convergence, NEVPT2, FIC-MRCI
   Bernardo de Souza      : ESD, SOC TD-DFT
   Georgi Stoychev        : AutoAux, RI-MP2 NMR
   Willem Van den Heuvel  : Paramagnetic NMR
   Boris Wezisla          : Elementary symmetry handling
   Frank Wennmohs         : Technical directorship


 We gratefully acknowledge several colleagues who have allowed us to
 interface, adapt or use parts of their codes:
   Stefan Grimme, W. Hujo, H. Kruse,             : VdW corrections, initial TS optimization,
                  C. Bannwarth                     DFT functionals, gCP, sTDA/sTD-DF
   Ed Valeev, F. Pavosevic, A. Kumar             : LibInt (2-el integral package), F12 methods
   Garnet Chan, S. Sharma, J. Yang, R. Olivares  : DMRG
   Ulf Ekstrom                                   : XCFun DFT Library
   Mihaly Kallay                                 : mrcc  (arbitrary order and MRCC methods)
   Andreas Klamt, Michael Diedenhofen            : otool_cosmo (COSMO solvation model)
   Jiri Pittner, Ondrej Demel                    : Mk-CCSD
   Frank Weinhold                                : gennbo (NPA and NBO analysis)
   Christopher J. Cramer and Donald G. Truhlar   : smd solvation model
   Lars Goerigk                                  : TD-DFT with DH, B97 family of functionals
   V. Asgeirsson, H. Jonsson                     : NEB implementation
   FAccTs GmbH                                   : IRC, NEB, NEB-TS, Multilevel, MM, QM/MM, CI optimization
   S Lehtola, MJT Oliveira, MAL Marques          : LibXC Library


 Your calculation uses the libint2 library for the computation of 2-el integrals
 For citations please refer to: http://libint.valeyev.net

 Your ORCA version has been built with support for libXC version: 4.2.3
 For citations please refer to: https://tddft.org/programs/libxc/

 This ORCA versions uses:
   CBLAS   interface :  Fast vector & matrix operations
   LAPACKE interface :  Fast linear algebra routines
   SCALAPACK package :  Parallel linear algebra routines


----- Orbital basis set information -----
Your calculation utilizes the basis: STO-3G
   H-Ne       : W. J. Hehre, R. F. Stewart and J. A. Pople, J. Chem. Phys. 2657 (1969).
   Na-Ar      : W. J. Hehre, R. Ditchfield, R. F. Stewart and J. A. Pople, J. Chem. Phys. 2769 (1970).
   K,Ca,Ga-Kr : W. J. Pietro, B. A. Levy, W. J. Hehre and R. F. Stewart, J. Am. Chem. Soc. 19, 2225 (1980).
   Sc-Zn,Y-Cd : W. J. Pietro and W. J. Hehre, J. Comp. Chem. 4, 241 (1983).

================================================================================
                                        WARNINGS
                       Please study these warnings very carefully!
================================================================================

INFO   : Checking CIS options ...

WARNING: CIS/ROCIS methods need fully converged wavefunctions
  ===> : Setting SCFConvForced true
         You can overwrite this default with %scf ConvForced false 


INFO   : the flag for use of LIBINT has been found!

================================================================================
                                       INPUT FILE
================================================================================
NAME = 1.inp
|  1> #!zindo/s tightscf 
|  2> !sto-3g
|  3>  %output Print[P_OVERLAP] 1 Print[P_MOs] 1 end
|  4> %cis nroots 20 dotrans all donto true triplets false end
|  5> *xyz 0 1
|  6>   C   1.82868189498644     -1.12568448671555     -0.11668508576230
|  7>   C   0.86073330841555     -0.38750890026130      0.54700557220456
|  8>   C   2.82457707278590     -1.77413785804051      0.60333732140804
|  9>   C   0.88748656122741     -0.29675789586408      1.93081821192431
| 10>   C   2.85051088582409     -1.68337170150631      1.98337718013689
| 11>   C   1.88183259800218     -0.94380310813381      2.65779697676493
| 12>   C   1.95012783005334     -0.87542052659737      4.15436663216222
| 13>   C   0.90161026641721     -0.07366951716518      4.88772760132817
| 14>   O   2.82617692482010     -1.45104219459857      4.75837980334316
| 15>   H   1.80813085503021     -1.19657204492586     -1.19477572316912
| 16>   H   0.08569654239513      0.11716212974510     -0.01115396027159
| 17>   H   3.57875121772189     -2.34921084889001      0.08595121337892
| 18>   H   0.12925020320207      0.28032533530661      2.43853666479911
| 19>   H   3.61421515995847     -2.17883879290430      2.56371628941295
| 20>   H   -0.09247172191325     -0.47103053572633      4.68627203668800
| 21>   H   0.91342593248451      0.96467512277121      4.55915523024135
| 22>   H   1.10576446858875     -0.12361417649373      5.95157403541037
| 23> *
| 24> 
| 25>                          ****END OF INPUT****
================================================================================

                       ****************************
                       * Single Point Calculation *
                       ****************************

---------------------------------
CARTESIAN COORDINATES (ANGSTROEM)
---------------------------------
  C      1.828682   -1.125684   -0.116685
  C      0.860733   -0.387509    0.547006
  C      2.824577   -1.774138    0.603337
  C      0.887487   -0.296758    1.930818
  C      2.850511   -1.683372    1.983377
  C      1.881833   -0.943803    2.657797
  C      1.950128   -0.875421    4.154367
  C      0.901610   -0.073670    4.887728
  O      2.826177   -1.451042    4.758380
  H      1.808131   -1.196572   -1.194776
  H      0.085697    0.117162   -0.011154
  H      3.578751   -2.349211    0.085951
  H      0.129250    0.280325    2.438537
  H      3.614215   -2.178839    2.563716
  H     -0.092472   -0.471031    4.686272
  H      0.913426    0.964675    4.559155
  H      1.105764   -0.123614    5.951574

----------------------------
CARTESIAN COORDINATES (A.U.)
----------------------------
  NO LB      ZA    FRAG     MASS         X           Y           Z
   0 C     6.0000    0    12.011    3.455708   -2.127235   -0.220503
   1 C     6.0000    0    12.011    1.626550   -0.732286    1.033691
   2 C     6.0000    0    12.011    5.337677   -3.352635    1.140142
   3 C     6.0000    0    12.011    1.677107   -0.560791    3.648718
   4 C     6.0000    0    12.011    5.386685   -3.181111    3.748040
   5 C     6.0000    0    12.011    3.556148   -1.783529    5.022508
   6 C     6.0000    0    12.011    3.685208   -1.654305    7.850615
   7 C     6.0000    0    12.011    1.703796   -0.139215    9.236467
   8 O     8.0000    0    15.999    5.340700   -2.742072    8.992035
   9 H     1.0000    0     1.008    3.416872   -2.261193   -2.257799
  10 H     1.0000    0     1.008    0.161943    0.221404   -0.021078
  11 H     1.0000    0     1.008    6.762860   -4.439365    0.162424
  12 H     1.0000    0     1.008    0.244247    0.529738    4.608166
  13 H     1.0000    0     1.008    6.829877   -4.117409    4.844722
  14 H     1.0000    0     1.008   -0.174746   -0.890119    8.855771
  15 H     1.0000    0     1.008    1.726125    1.822972    8.615555
  16 H     1.0000    0     1.008    2.089592   -0.233597   11.246845

--------------------------------
INTERNAL COORDINATES (ANGSTROEM)
--------------------------------
 C      0   0   0     0.000000000000     0.00000000     0.00000000
 C      1   0   0     1.386475009567     0.00000000     0.00000000
 C      1   2   0     1.389507555494   120.05210565     0.00000000
 C      2   1   3     1.387043223257   119.93010293     0.00000000
 C      3   1   2     1.383264641893   119.98626775     0.00000000
 C      4   2   1     1.391362523608   120.30710584     0.00000000
 C      6   4   2     1.499687017225   122.19132864   180.06864883
 C      7   6   4     1.509970884976   118.50646594   359.91298993
 O      7   6   4     1.209807518605   120.63100011   179.87848403
 H      1   2   3     1.080614090976   119.94841846   179.99421360
 H      2   1   3     1.080239279468   120.15136175   180.00742008
 H      3   1   2     1.080359185862   120.03849103   180.00478348
 H      4   2   1     1.079687666744   119.37841264   180.00974055
 H      5   3   1     1.079594988292   121.29520753   179.97832976
 H      8   7   6     1.089348026629   110.49768431    60.13686095
 H      8   7   6     1.089155179160   110.61885624   301.12571962
 H      8   7   6     1.084408890857   108.74067766   180.54164895

---------------------------
INTERNAL COORDINATES (A.U.)
---------------------------
 C      0   0   0     0.000000000000     0.00000000     0.00000000
 C      1   0   0     2.620058059608     0.00000000     0.00000000
 C      1   2   0     2.625788740898   120.05210565     0.00000000
 C      2   1   3     2.621131827867   119.93010293     0.00000000
 C      3   1   2     2.613991343914   119.98626775     0.00000000
 C      4   2   1     2.629294122620   120.30710584     0.00000000
 C      6   4   2     2.833997749153   122.19132864   180.06864883
 C      7   6   4     2.853431442799   118.50646594   359.91298993
 O      7   6   4     2.286204884923   120.63100011   179.87848403
 H      1   2   3     2.042064688401   119.94841846   179.99421360
 H      2   1   3     2.041356397299   120.15136175   180.00742008
 H      3   1   2     2.041582987545   120.03849103   180.00478348
 H      4   2   1     2.040314000319   119.37841264   180.00974055
 H      5   3   1     2.040138863425   121.29520753   179.97832976
 H      8   7   6     2.058569434855   110.49768431    60.13686095
 H      8   7   6     2.058205005954   110.61885624   301.12571962
 H      8   7   6     2.049235820909   108.74067766   180.54164895

---------------------
BASIS SET INFORMATION
---------------------
There are 3 groups of distinct atoms

 Group   1 Type C   : 6s3p contracted to 2s1p pattern {33/3}
 Group   2 Type O   : 6s3p contracted to 2s1p pattern {33/3}
 Group   3 Type H   : 3s contracted to 1s pattern {3}

Atom   0C    basis set group =>   1
Atom   1C    basis set group =>   1
Atom   2C    basis set group =>   1
Atom   3C    basis set group =>   1
Atom   4C    basis set group =>   1
Atom   5C    basis set group =>   1
Atom   6C    basis set group =>   1
Atom   7C    basis set group =>   1
Atom   8O    basis set group =>   2
Atom   9H    basis set group =>   3
Atom  10H    basis set group =>   3
Atom  11H    basis set group =>   3
Atom  12H    basis set group =>   3
Atom  13H    basis set group =>   3
Atom  14H    basis set group =>   3
Atom  15H    basis set group =>   3
Atom  16H    basis set group =>   3

Checking for AutoStart:
The File: 1.gbw exists
Trying to determine its content:
     ... Fine, the file contains calculation information
     ... Fine, the calculation information was read
     ... Fine, the file contains a basis set
     ... Fine, the basis set was read
     ... Fine, the file contains a geometry
     ... Fine, the geometry was read
     ... Fine, the file contains a set of orbitals
     ... Fine, the orbitals can be read
     => possible old guess file was deleted
     => GBW file was renamed to GES file
     => GES file is set as startup file
     => Guess is set to MORead
     ... now leaving AutoStart

------------------------------------------------------------------------------
                           ORCA GTO INTEGRAL CALCULATION
------------------------------------------------------------------------------

                         BASIS SET STATISTICS AND STARTUP INFO

 # of primitive gaussian shells          ...  105
 # of primitive gaussian functions       ...  159
 # of contracted shells                  ...   35
 # of contracted basis functions         ...   53
 Highest angular momentum                ...    1
 Maximum contraction depth               ...    3
 Integral package used                   ... LIBINT
 Integral threshhold            Thresh   ...  1.000e-10
 Primitive cut-off              TCut     ...  1.000e-11


------------------------------ INTEGRAL EVALUATION ----------------------------


 * One electron integrals 
 Pre-screening matrix                    ... done
 Shell pair data                         ... done (   0.000 sec)

-------------------------------------------------------------------------------
                                 ORCA SCF
-------------------------------------------------------------------------------

------------
SCF SETTINGS
------------
Hamiltonian:
 Ab initio Hamiltonian  Method          .... Hartree-Fock(GTOs)


General Settings:
 Integral files         IntName         .... 1
 Hartree-Fock type      HFTyp           .... RHF
 Total Charge           Charge          ....    0
 Multiplicity           Mult            ....    1
 Number of Electrons    NEL             ....   64
 Basis Dimension        Dim             ....   53
 Nuclear Repulsion      ENuc            ....    403.0788302202 Eh

Convergence Acceleration:
 DIIS                   CNVDIIS         .... on
   Start iteration      DIISMaxIt       ....    12
   Startup error        DIISStart       ....  0.200000
   # of expansion vecs  DIISMaxEq       ....     5
   Bias factor          DIISBfac        ....   1.050
   Max. coefficient     DIISMaxC        ....  10.000
 Newton-Raphson         CNVNR           .... off
 SOSCF                  CNVSOSCF        .... on
   Start iteration      SOSCFMaxIt      ....   150
   Startup grad/error   SOSCFStart      ....  0.003300
 Level Shifting         CNVShift        .... on
   Level shift para.    LevelShift      ....    0.2500
   Turn off err/grad.   ShiftErr        ....    0.0010
 Zerner damping         CNVZerner       .... off
 Static damping         CNVDamp         .... on
   Fraction old density DampFac         ....    0.7000
   Max. Damping (<1)    DampMax         ....    0.9800
   Min. Damping (>=0)   DampMin         ....    0.0000
   Turn off err/grad.   DampErr         ....    0.1000
 Fernandez-Rico         CNVRico         .... off

SCF Procedure:
 Maximum # iterations   MaxIter         ....   125
 SCF integral mode      SCFMode         .... Direct
   Integral package                     .... LIBINT
 Reset frequency        DirectResetFreq ....    20
 Integral Threshold     Thresh          ....  1.000e-10 Eh
 Primitive CutOff       TCut            ....  1.000e-11 Eh

Convergence Tolerance:
 Convergence Check Mode ConvCheckMode   .... Total+1el-Energy
 Convergence forced     ConvForced      .... 1
 Energy Change          TolE            ....  1.000e-06 Eh
 1-El. energy change                    ....  1.000e-03 Eh
 Orbital Gradient       TolG            ....  5.000e-05
 Orbital Rotation angle TolX            ....  5.000e-05
 DIIS Error             TolErr          ....  1.000e-06


Diagonalization of the overlap matrix:
Smallest eigenvalue                        ... 1.678e-01
Time for diagonalization                   ...    0.000 sec
Threshold for overlap eigenvalues          ... 1.000e-08
Number of eigenvalues below threshold      ... 0
Time for construction of square roots      ...    0.000 sec
Total time needed                          ...    0.001 sec

--------------
OVERLAP MATRIX
--------------
                  0          1          2          3          4          5    
      0       1.000000   0.248362   0.000000   0.000000   0.000000   0.000001
      1       0.248362   1.000000   0.000000  -0.000000   0.000000   0.038745
      2       0.000000   0.000000   1.000000  -0.000000   0.000000   0.030746
      3       0.000000  -0.000000  -0.000000   1.000000  -0.000000  -0.044841
      4       0.000000   0.000000   0.000000  -0.000000   1.000000   0.034197
      5       0.000001   0.038745   0.030746  -0.044841   0.034197   1.000000
      6       0.038745   0.371449   0.188019  -0.274213   0.209120   0.248362
      7      -0.030746  -0.188019   0.093048   0.182679  -0.139315   0.000000
      8       0.044841   0.274213   0.182679  -0.048120   0.203181   0.000000
      9      -0.034197  -0.209120  -0.139315   0.203181   0.063356  -0.000000
     10       0.000001   0.038465   0.033043   0.045704  -0.029759   0.000000
     11       0.038465   0.369917   0.202965   0.280730  -0.182791   0.001922
     12      -0.033043  -0.202965   0.070673  -0.202547   0.131884  -0.000103
     13      -0.045704  -0.280730  -0.202547  -0.063040   0.182414  -0.003596
     14       0.029759   0.182791   0.131884   0.182414   0.098338   0.002539
     15       0.000000   0.001947   0.003799  -0.001746   0.001538   0.000001
     16       0.001947   0.063269   0.079069  -0.036346   0.032011   0.038693
     17      -0.003799  -0.079069  -0.082639   0.050212  -0.044222  -0.063994
     18       0.001746   0.036346   0.050212   0.003511   0.020328  -0.001237
     19      -0.001538  -0.032011  -0.044222   0.020328   0.008689  -0.004197
     20       0.000000   0.001947   0.003896   0.001896  -0.001035   0.000000
     21       0.001947   0.063264   0.081092   0.039457  -0.021535   0.000449
     22      -0.003896  -0.081092  -0.088311  -0.055908   0.030513  -0.000614
     23      -0.001896  -0.039457  -0.055908  -0.000613   0.014847  -0.000850
     24       0.001035   0.021535   0.030513   0.014847   0.018487   0.000554
     25       0.000000   0.000439   0.001157   0.000022   0.000076   0.000000
     26       0.000439   0.026954   0.043108   0.000826   0.002826   0.001886
     27      -0.001157  -0.043108  -0.063965  -0.001425  -0.004877  -0.003793
     28      -0.000022  -0.000826  -0.001425   0.010399  -0.000093  -0.001835
     29      -0.000076  -0.002826  -0.004877  -0.000093   0.010106   0.001000
     30       0.000000   0.000000   0.000001   0.000000   0.000000   0.000000
     31       0.000000   0.000348   0.000758   0.000022   0.000044   0.000003
     32      -0.000001  -0.000758  -0.001558  -0.000048  -0.000098  -0.000009
     33      -0.000000  -0.000022  -0.000048   0.000111  -0.000003  -0.000003
     34      -0.000000  -0.000044  -0.000098  -0.000003   0.000107   0.000001
     35       0.000000   0.000000   0.000000  -0.000000   0.000000   0.000000
     36       0.000000   0.000011   0.000027  -0.000005   0.000006   0.000000
     37      -0.000000  -0.000027  -0.000065   0.000013  -0.000014  -0.000000
     38       0.000000   0.000005   0.000013   0.000001   0.000003  -0.000000
     39      -0.000000  -0.000006  -0.000014   0.000003   0.000000  -0.000000
     40       0.000000   0.000000   0.000000   0.000000  -0.000000   0.000000
     41       0.000000   0.000002   0.000006   0.000001  -0.000000   0.000000
     42       0.000000  -0.000004  -0.000013  -0.000003   0.000001   0.000000
     43       0.000000  -0.000001  -0.000003  -0.000000   0.000000   0.000000
     44       0.000000   0.000000   0.000001   0.000000   0.000000   0.000000
     45       0.063655   0.496167  -0.469378  -0.008947  -0.030863   0.005621
     46       0.005596   0.099522   0.006303  -0.104104   0.074232   0.063711
     47       0.005572   0.099226   0.012062   0.104178  -0.072834   0.000103
     48       0.000107   0.007077   0.008824  -0.005869   0.004855   0.005712
     49       0.000101   0.006853   0.008950   0.005962  -0.003516   0.000014
     50       0.000000   0.000028   0.000058  -0.000023   0.000008   0.000002
     51       0.000000   0.000029   0.000059  -0.000012   0.000026   0.000002
     52       0.000000   0.000001   0.000002  -0.000000   0.000000   0.000000
                  6          7          8          9         10         11    
      0       0.038745  -0.030746   0.044841  -0.034197   0.000001   0.038465
      1       0.371449  -0.188019   0.274213  -0.209120   0.038465   0.369917
      2       0.188019   0.093048   0.182679  -0.139315   0.033043   0.202965
      3      -0.274213   0.182679  -0.048120   0.203181   0.045704   0.280730
      4       0.209120  -0.139315   0.203181   0.063356  -0.029759  -0.182791
      5       0.248362   0.000000   0.000000  -0.000000   0.000000   0.001922
      6       1.000000  -0.000000  -0.000000  -0.000000   0.001922   0.062788
      7      -0.000000   1.000000   0.000000   0.000000   0.000103   0.002158
      8      -0.000000   0.000000   1.000000  -0.000000   0.003596   0.075217
      9      -0.000000   0.000000  -0.000000   1.000000  -0.002539  -0.053109
     10       0.001922   0.000103   0.003596  -0.002539   1.000000   0.248362
     11       0.062788   0.002158   0.075217  -0.053109   0.248362   1.000000
     12      -0.002158   0.026285  -0.002856   0.002017  -0.000000  -0.000000
     13      -0.075217  -0.002856  -0.073210   0.070309   0.000000   0.000000
     14       0.053109   0.002017   0.070309  -0.023277   0.000000   0.000000
     15       0.038693   0.063994   0.001237   0.004197   0.000000   0.000451
     16       0.371162   0.391659   0.007572   0.025685   0.000451   0.027378
     17      -0.391659  -0.325772  -0.010514  -0.035666  -0.000569  -0.020969
     18      -0.007572  -0.010514   0.217878  -0.000690   0.000831   0.030598
     19      -0.025685  -0.035666  -0.000690   0.215742  -0.000634  -0.023337
     20       0.000449   0.000614   0.000850  -0.000554   0.000001   0.039044
     21       0.027326   0.022643   0.031367  -0.020428   0.039044   0.373075
     22      -0.022643  -0.009670  -0.028054   0.018271  -0.064572  -0.393015
     23      -0.031367  -0.028054  -0.028281   0.025310  -0.001213  -0.007386
     24       0.020428   0.018271   0.025310  -0.005902  -0.004247  -0.025849
     25       0.001886   0.003793   0.001835  -0.001000   0.000000   0.001898
     26       0.062103   0.079894   0.038649  -0.021056   0.001898   0.062336
     27      -0.079894  -0.087495  -0.054926   0.029924  -0.003716  -0.078077
     28      -0.038649  -0.054926  -0.000523   0.014476   0.001705   0.035828
     29       0.021056   0.029924   0.014476   0.018161  -0.001502  -0.031556
     30       0.000003   0.000009   0.000003  -0.000001   0.000000   0.000003
     31       0.001668   0.003133   0.000946  -0.000424   0.000003   0.001851
     32      -0.003133  -0.005500  -0.001829   0.000819  -0.000011  -0.003429
     33      -0.000946  -0.001829   0.000004   0.000247   0.000003   0.000845
     34       0.000424   0.000819   0.000247   0.000446  -0.000003  -0.000868
     35       0.000000   0.000000   0.000000   0.000000   0.000000   0.000000
     36       0.000271   0.000598   0.000006   0.000043   0.000000   0.000025
     37      -0.000598  -0.001248  -0.000013  -0.000097  -0.000000  -0.000053
     38      -0.000006  -0.000013   0.000087  -0.000001   0.000000   0.000024
     39      -0.000043  -0.000097  -0.000001   0.000080  -0.000000  -0.000021
     40       0.000000   0.000000   0.000000  -0.000000   0.000000   0.000000
     41       0.000005   0.000014   0.000007  -0.000004   0.000000   0.000079
     42      -0.000011  -0.000027  -0.000014   0.000007  -0.000000  -0.000162
     43      -0.000005  -0.000014  -0.000005   0.000003  -0.000000  -0.000000
     44       0.000003   0.000007   0.000003  -0.000000  -0.000000  -0.000013
     45       0.099854  -0.104424   0.056799  -0.048505   0.005575   0.099263
     46       0.496384  -0.243161  -0.337643   0.219859   0.000103   0.006918
     47       0.006937  -0.001559   0.009192  -0.006634   0.063693   0.496315
     48       0.101005   0.114875  -0.044424   0.040558   0.000014   0.002036
     49       0.002033   0.001902   0.002597  -0.001690   0.005476   0.097990
     50       0.000660   0.001232  -0.000284  -0.000025   0.000000   0.000031
     51       0.000689   0.001247   0.000016   0.000420   0.000000   0.000032
     52       0.000013   0.000031   0.000001   0.000002   0.000000   0.000002
                 12         13         14         15         16         17    
      0      -0.033043  -0.045704   0.029759   0.000000   0.001947  -0.003799
      1      -0.202965  -0.280730   0.182791   0.001947   0.063269  -0.079069
      2       0.070673  -0.202547   0.131884   0.003799   0.079069  -0.082639
      3      -0.202547  -0.063040   0.182414  -0.001746  -0.036346   0.050212
      4       0.131884   0.182414   0.098338   0.001538   0.032011  -0.044222
      5      -0.000103  -0.003596   0.002539   0.000001   0.038693  -0.063994
      6      -0.002158  -0.075217   0.053109   0.038693   0.371162  -0.391659
      7       0.026285  -0.002856   0.002017   0.063994   0.391659  -0.325772
      8      -0.002856  -0.073210   0.070309   0.001237   0.007572  -0.010514
      9       0.002017   0.070309  -0.023277   0.004197   0.025685  -0.035666
     10      -0.000000   0.000000   0.000000   0.000000   0.000451  -0.000569
     11      -0.000000   0.000000   0.000000   0.000451   0.027378  -0.020969
     12       1.000000   0.000000   0.000000   0.000569   0.020969  -0.006731
     13       0.000000   1.000000   0.000000  -0.000831  -0.030598   0.025296
     14       0.000000   0.000000   1.000000   0.000634   0.023337  -0.019293
     15       0.000569  -0.000831   0.000634   1.000000   0.248362   0.000000
     16       0.020969  -0.030598   0.023337   0.248362   1.000000  -0.000000
     17      -0.006731   0.025296  -0.019293   0.000000  -0.000000   1.000000
     18       0.025296  -0.026309   0.028152   0.000000  -0.000000   0.000000
     19      -0.019293   0.028152  -0.010867   0.000000   0.000000  -0.000000
     20       0.064572   0.001213   0.004247   0.000000   0.001927   0.000097
     21       0.393015   0.007386   0.025849   0.001927   0.062889   0.002017
     22      -0.325842  -0.010249  -0.035872  -0.000097  -0.002017   0.026343
     23      -0.010249   0.219381  -0.000674  -0.003605  -0.075316  -0.002669
     24      -0.035872  -0.000674   0.217215   0.002546   0.053201   0.001885
     25       0.003716  -0.001705   0.001502   0.000001   0.038295   0.033171
     26       0.078077  -0.035828   0.031556   0.038295   0.368982   0.204303
     27      -0.081888   0.049579  -0.043667  -0.033171  -0.204303   0.067712
     28       0.049579   0.003405   0.020038  -0.045371  -0.279442  -0.203352
     29      -0.043667   0.020038   0.008507   0.029524   0.181840   0.132326
     30       0.000011  -0.000003   0.000003   0.000000   0.001196   0.002532
     31       0.003429  -0.000845   0.000868   0.001196   0.047750   0.063471
     32      -0.005928   0.001612  -0.001657  -0.002532  -0.063471  -0.072923
     33       0.001612   0.000222   0.000408  -0.001210  -0.030333  -0.044155
     34      -0.001657   0.000408   0.000200   0.000659   0.016518   0.024045
     35       0.000000  -0.000000   0.000000   0.000000   0.000197   0.000553
     36       0.000053  -0.000024   0.000021   0.000197   0.017179   0.028585
     37      -0.000107   0.000051  -0.000045  -0.000553  -0.028585  -0.044410
     38       0.000051  -0.000015   0.000020  -0.000003  -0.000137  -0.000243
     39      -0.000045   0.000020  -0.000010  -0.000042  -0.002157  -0.003835
     40       0.000001   0.000000   0.000000   0.000000   0.000004   0.000011
     41       0.000208   0.000000   0.000016   0.000000   0.000691   0.001254
     42      -0.000405  -0.000000  -0.000033  -0.000000  -0.000986  -0.001605
     43      -0.000000   0.000024  -0.000000  -0.000000  -0.000676  -0.001251
     44      -0.000033  -0.000000   0.000022   0.000000   0.000403   0.000745
     45      -0.107082  -0.060532   0.034395   0.000105   0.006993  -0.010660
     46      -0.002072  -0.009236   0.006378   0.005623   0.099875  -0.116453
     47      -0.225354   0.328490  -0.250480   0.000014   0.002032  -0.001739
     48       0.001734  -0.002546   0.001941   0.063793   0.496703   0.221387
     49       0.115062   0.046347  -0.023753   0.000108   0.007119   0.002199
     50       0.000055  -0.000039   0.000018   0.000547   0.020201   0.028894
     51       0.000055  -0.000027   0.000038   0.000574   0.020853   0.028513
     52       0.000006  -0.000002   0.000002   0.000006   0.001244   0.002289
                 18         19         20         21         22         23    
      0       0.001746  -0.001538   0.000000   0.001947  -0.003896  -0.001896
      1       0.036346  -0.032011   0.001947   0.063264  -0.081092  -0.039457
      2       0.050212  -0.044222   0.003896   0.081092  -0.088311  -0.055908
      3       0.003511   0.020328   0.001896   0.039457  -0.055908  -0.000613
      4       0.020328   0.008689  -0.001035  -0.021535   0.030513   0.014847
      5      -0.001237  -0.004197   0.000000   0.000449  -0.000614  -0.000850
      6      -0.007572  -0.025685   0.000449   0.027326  -0.022643  -0.031367
      7      -0.010514  -0.035666   0.000614   0.022643  -0.009670  -0.028054
      8       0.217878  -0.000690   0.000850   0.031367  -0.028054  -0.028281
      9      -0.000690   0.215742  -0.000554  -0.020428   0.018271   0.025310
     10       0.000831  -0.000634   0.000001   0.039044  -0.064572  -0.001213
     11       0.030598  -0.023337   0.039044   0.373075  -0.393015  -0.007386
     12       0.025296  -0.019293   0.064572   0.393015  -0.325842  -0.010249
     13      -0.026309   0.028152   0.001213   0.007386  -0.010249   0.219381
     14       0.028152  -0.010867   0.004247   0.025849  -0.035872  -0.000674
     15       0.000000   0.000000   0.000000   0.001927  -0.000097  -0.003605
     16      -0.000000   0.000000   0.001927   0.062889  -0.002017  -0.075316
     17       0.000000  -0.000000   0.000097   0.002017   0.026343  -0.002669
     18       1.000000  -0.000000   0.003605   0.075316  -0.002669  -0.073271
     19      -0.000000   1.000000  -0.002546  -0.053201   0.001885   0.070415
     20       0.003605  -0.002546   1.000000   0.248362  -0.000000   0.000000
     21       0.075316  -0.053201   0.248362   1.000000  -0.000000  -0.000000
     22      -0.002669   0.001885  -0.000000  -0.000000   1.000000   0.000000
     23      -0.073271   0.070415   0.000000  -0.000000   0.000000   1.000000
     24       0.070415  -0.023324  -0.000000   0.000000  -0.000000  -0.000000
     25       0.045371  -0.029524   0.000001   0.038155   0.030628  -0.043991
     26       0.279442  -0.181840   0.038155   0.368213   0.189058  -0.271546
     27      -0.203352   0.132326  -0.030628  -0.189058   0.088266   0.183162
     28      -0.061755   0.180993   0.043991   0.271546   0.183162  -0.047289
     29       0.180993   0.098609  -0.033586  -0.207321  -0.139841   0.200855
     30       0.001210  -0.000659   0.000000   0.001426   0.002947  -0.001222
     31       0.030333  -0.016518   0.001426   0.052826   0.069054  -0.028639
     32      -0.044155   0.024045  -0.002947  -0.069054  -0.077400   0.041128
     33      -0.001631   0.011491   0.001222   0.028639   0.041128   0.004711
     34       0.011491   0.013214  -0.001097  -0.025699  -0.036906   0.015306
     35       0.000003   0.000042   0.000000   0.000002   0.000006  -0.000004
     36       0.000137   0.002157   0.000002   0.001426   0.002150  -0.001442
     37      -0.000243  -0.003835  -0.000006  -0.002150  -0.002855   0.002234
     38       0.006416  -0.000018   0.000004   0.001442   0.002234  -0.001025
     39      -0.000018   0.006127  -0.000003  -0.001191  -0.001845   0.001238
     40       0.000008  -0.000005   0.000000   0.000250   0.000675  -0.000006
     41       0.000860  -0.000512   0.000013   0.010787   0.020297  -0.000178
     42      -0.001251   0.000745  -0.000044  -0.016259  -0.028467   0.000283
     43      -0.000638   0.000511   0.000000   0.000143   0.000283   0.003771
     44       0.000511  -0.000084  -0.000004  -0.001361  -0.002699   0.000024
     45       0.003140  -0.003069   0.000105   0.006999  -0.010849  -0.003558
     46      -0.048080   0.024821   0.000014   0.002028  -0.001877  -0.002602
     47       0.002537  -0.001935   0.005661   0.100366  -0.114412   0.043912
     48      -0.330624   0.251633   0.000102   0.006886   0.001527  -0.009132
     49       0.009475  -0.006540   0.063807   0.496757   0.253092   0.333059
     50      -0.010276  -0.001827   0.000003   0.000818   0.001002  -0.001091
     51       0.000281   0.013684   0.000003   0.000829   0.000968  -0.000728
     52       0.000124   0.000099   0.000000   0.000219   0.000384  -0.000169
                 24         25         26         27         28         29    
      0       0.001035   0.000000   0.000439  -0.001157  -0.000022  -0.000076
      1       0.021535   0.000439   0.026954  -0.043108  -0.000826  -0.002826
      2       0.030513   0.001157   0.043108  -0.063965  -0.001425  -0.004877
      3       0.014847   0.000022   0.000826  -0.001425   0.010399  -0.000093
      4       0.018487   0.000076   0.002826  -0.004877  -0.000093   0.010106
      5       0.000554   0.000000   0.001886  -0.003793  -0.001835   0.001000
      6       0.020428   0.001886   0.062103  -0.079894  -0.038649   0.021056
      7       0.018271   0.003793   0.079894  -0.087495  -0.054926   0.029924
      8       0.025310   0.001835   0.038649  -0.054926  -0.000523   0.014476
      9      -0.005902  -0.001000  -0.021056   0.029924   0.014476   0.018161
     10      -0.004247   0.000000   0.001898  -0.003716   0.001705  -0.001502
     11      -0.025849   0.001898   0.062336  -0.078077   0.035828  -0.031556
     12      -0.035872   0.003716   0.078077  -0.081888   0.049579  -0.043667
     13      -0.000674  -0.001705  -0.035828   0.049579   0.003405   0.020038
     14       0.217215   0.001502   0.031556  -0.043667   0.020038   0.008507
     15       0.002546   0.000001   0.038295  -0.033171  -0.045371   0.029524
     16       0.053201   0.038295   0.368982  -0.204303  -0.279442   0.181840
     17       0.001885   0.033171   0.204303   0.067712  -0.203352   0.132326
     18       0.070415   0.045371   0.279442  -0.203352  -0.061755   0.180993
     19      -0.023324  -0.029524  -0.181840   0.132326   0.180993   0.098609
     20      -0.000000   0.000001   0.038155  -0.030628   0.043991  -0.033586
     21       0.000000   0.038155   0.368213  -0.189058   0.271546  -0.207321
     22      -0.000000   0.030628   0.189058   0.088266   0.183162  -0.139841
     23      -0.000000  -0.043991  -0.271546   0.183162  -0.047289   0.200855
     24       1.000000   0.033586   0.207321  -0.139841   0.200855   0.062439
     25       0.033586   1.000000   0.248362   0.000000   0.000000  -0.000000
     26       0.207321   0.248362   1.000000   0.000000  -0.000000  -0.000000
     27      -0.139841   0.000000   0.000000   1.000000   0.000000   0.000000
     28       0.200855   0.000000  -0.000000   0.000000   1.000000  -0.000000
     29       0.062439  -0.000000  -0.000000   0.000000  -0.000000   1.000000
     30       0.001097   0.000000   0.029415   0.048972   0.002235   0.002238
     31       0.025699   0.029415   0.316758   0.350577   0.015998   0.016019
     32      -0.036906  -0.048972  -0.350577  -0.317606  -0.022585  -0.022613
     33       0.015306  -0.002235  -0.015998  -0.022585   0.176264  -0.001032
     34       0.008033  -0.002238  -0.016019  -0.022613  -0.001032   0.176261
     35       0.000003   0.000000   0.000966   0.002050  -0.000901   0.000800
     36       0.001191   0.000966   0.042237   0.055831  -0.024542   0.021786
     37      -0.001845  -0.002050  -0.055831  -0.063522   0.035401  -0.031426
     38       0.001238   0.000901   0.024542   0.035401   0.001452   0.013814
     39      -0.000549  -0.000800  -0.021786  -0.031426   0.013814   0.004751
     40       0.000057   0.000000   0.001366   0.002792   0.001255  -0.000674
     41       0.001699   0.000205   0.034706   0.052517   0.023610  -0.012681
     42      -0.002699  -0.000516  -0.041859  -0.055505  -0.030884   0.016589
     43       0.000024  -0.000232  -0.018818  -0.030884  -0.000691   0.007458
     44       0.003548   0.000125   0.010108   0.016589   0.007458   0.009188
     45       0.001662   0.000014   0.001994  -0.003563  -0.000068  -0.000234
     46       0.001694   0.000102   0.006870  -0.008934  -0.006013   0.003552
     47      -0.040149   0.000102   0.006885  -0.008629   0.005694  -0.004715
     48       0.006590   0.005516   0.098502  -0.012945  -0.103470   0.072271
     49      -0.216078   0.005792   0.102025  -0.005779   0.106409  -0.075860
     50       0.000449   0.000669   0.023071   0.024519  -0.023865   0.005715
     51       0.000995   0.000685   0.023436   0.023372  -0.011904   0.023460
     52       0.000151   0.000070   0.005423   0.008606  -0.002028   0.002143
                 30         31         32         33         34         35    
      0       0.000000   0.000000  -0.000001  -0.000000  -0.000000   0.000000
      1       0.000000   0.000348  -0.000758  -0.000022  -0.000044   0.000000
      2       0.000001   0.000758  -0.001558  -0.000048  -0.000098   0.000000
      3       0.000000   0.000022  -0.000048   0.000111  -0.000003  -0.000000
      4       0.000000   0.000044  -0.000098  -0.000003   0.000107   0.000000
      5       0.000000   0.000003  -0.000009  -0.000003   0.000001   0.000000
      6       0.000003   0.001668  -0.003133  -0.000946   0.000424   0.000000
      7       0.000009   0.003133  -0.005500  -0.001829   0.000819   0.000000
      8       0.000003   0.000946  -0.001829   0.000004   0.000247   0.000000
      9      -0.000001  -0.000424   0.000819   0.000247   0.000446   0.000000
     10       0.000000   0.000003  -0.000011   0.000003  -0.000003   0.000000
     11       0.000003   0.001851  -0.003429   0.000845  -0.000868   0.000000
     12       0.000011   0.003429  -0.005928   0.001612  -0.001657   0.000000
     13      -0.000003  -0.000845   0.001612   0.000222   0.000408  -0.000000
     14       0.000003   0.000868  -0.001657   0.000408   0.000200   0.000000
     15       0.000000   0.001196  -0.002532  -0.001210   0.000659   0.000000
     16       0.001196   0.047750  -0.063471  -0.030333   0.016518   0.000197
     17       0.002532   0.063471  -0.072923  -0.044155   0.024045   0.000553
     18       0.001210   0.030333  -0.044155  -0.001631   0.011491   0.000003
     19      -0.000659  -0.016518   0.024045   0.011491   0.013214   0.000042
     20       0.000000   0.001426  -0.002947   0.001222  -0.001097   0.000000
     21       0.001426   0.052826  -0.069054   0.028639  -0.025699   0.000002
     22       0.002947   0.069054  -0.077400   0.041128  -0.036906   0.000006
     23      -0.001222  -0.028639   0.041128   0.004711   0.015306  -0.000004
     24       0.001097   0.025699  -0.036906   0.015306   0.008033   0.000003
     25       0.000000   0.029415  -0.048972  -0.002235  -0.002238   0.000000
     26       0.029415   0.316758  -0.350577  -0.015998  -0.016019   0.000966
     27       0.048972   0.350577  -0.317606  -0.022585  -0.022613   0.002050
     28       0.002235   0.015998  -0.022585   0.176264  -0.001032  -0.000901
     29       0.002238   0.016019  -0.022613  -0.001032   0.176261   0.000800
     30       1.000000   0.248362  -0.000000   0.000000   0.000000   0.000000
     31       0.248362   1.000000  -0.000000  -0.000000  -0.000000   0.028674
     32      -0.000000  -0.000000   1.000000   0.000000   0.000000   0.023260
     33       0.000000  -0.000000   0.000000   1.000000   0.000000  -0.033256
     34       0.000000  -0.000000   0.000000   0.000000   1.000000   0.025430
     35       0.000000   0.028674   0.023260  -0.033256   0.025430   1.000000
     36       0.028674   0.312052   0.168777  -0.241308   0.184517   0.248362
     37      -0.023260  -0.168777   0.057794   0.166022  -0.126949   0.000000
     38       0.033256   0.241308   0.166022  -0.063454   0.181505   0.000000
     39      -0.025430  -0.184517  -0.126949   0.181505   0.035127  -0.000000
     40       0.000001   0.037045   0.031126   0.045144  -0.029663   0.000000
     41       0.036588   0.364981   0.221568   0.321357  -0.211153   0.000191
     42      -0.030644  -0.160967   0.080739  -0.189900   0.124777   0.000030
     43      -0.044445  -0.233463  -0.189900  -0.063757   0.180974  -0.000441
     44       0.029203   0.153401   0.124777   0.180974   0.092759   0.000316
     45       0.000000   0.000016  -0.000038  -0.000001  -0.000002   0.000000
     46       0.000000   0.000178  -0.000328  -0.000147   0.000078   0.000000
     47       0.000000   0.000207  -0.000373   0.000150  -0.000135   0.000000
     48       0.000971   0.029552  -0.027057  -0.028714   0.018225   0.001616
     49       0.001374   0.037337  -0.032286   0.033776  -0.026456   0.000004
     50       0.005514   0.098479   0.031395  -0.120560   0.023868   0.062370
     51       0.005495   0.098233   0.023825  -0.061017   0.108303   0.062398
     52       0.005885   0.103212   0.111842  -0.052545   0.046785   0.063094
                 36         37         38         39         40         41    
      0       0.000000  -0.000000   0.000000  -0.000000   0.000000   0.000000
      1       0.000011  -0.000027   0.000005  -0.000006   0.000000   0.000002
      2       0.000027  -0.000065   0.000013  -0.000014   0.000000   0.000006
      3      -0.000005   0.000013   0.000001   0.000003   0.000000   0.000001
      4       0.000006  -0.000014   0.000003   0.000000  -0.000000  -0.000000
      5       0.000000  -0.000000  -0.000000  -0.000000   0.000000   0.000000
      6       0.000271  -0.000598  -0.000006  -0.000043   0.000000   0.000005
      7       0.000598  -0.001248  -0.000013  -0.000097   0.000000   0.000014
      8       0.000006  -0.000013   0.000087  -0.000001   0.000000   0.000007
      9       0.000043  -0.000097  -0.000001   0.000080  -0.000000  -0.000004
     10       0.000000  -0.000000   0.000000  -0.000000   0.000000   0.000000
     11       0.000025  -0.000053   0.000024  -0.000021   0.000000   0.000079
     12       0.000053  -0.000107   0.000051  -0.000045   0.000001   0.000208
     13      -0.000024   0.000051  -0.000015   0.000020   0.000000   0.000000
     14       0.000021  -0.000045   0.000020  -0.000010   0.000000   0.000016
     15       0.000197  -0.000553  -0.000003  -0.000042   0.000000   0.000000
     16       0.017179  -0.028585  -0.000137  -0.002157   0.000004   0.000691
     17       0.028585  -0.044410  -0.000243  -0.003835   0.000011   0.001254
     18       0.000137  -0.000243   0.006416  -0.000018   0.000008   0.000860
     19       0.002157  -0.003835  -0.000018   0.006127  -0.000005  -0.000512
     20       0.000002  -0.000006   0.000004  -0.000003   0.000000   0.000013
     21       0.001426  -0.002150   0.001442  -0.001191   0.000250   0.010787
     22       0.002150  -0.002855   0.002234  -0.001845   0.000675   0.020297
     23      -0.001442   0.002234  -0.001025   0.001238  -0.000006  -0.000178
     24       0.001191  -0.001845   0.001238  -0.000549   0.000057   0.001699
     25       0.000966  -0.002050   0.000901  -0.000800   0.000000   0.000205
     26       0.042237  -0.055831   0.024542  -0.021786   0.001366   0.034706
     27       0.055831  -0.063522   0.035401  -0.031426   0.002792   0.052517
     28      -0.024542   0.035401   0.001452   0.013814   0.001255   0.023610
     29       0.021786  -0.031426   0.013814   0.004751  -0.000674  -0.012681
     30       0.028674  -0.023260   0.033256  -0.025430   0.000001   0.036588
     31       0.312052  -0.168777   0.241308  -0.184517   0.037045   0.364981
     32       0.168777   0.057794   0.166022  -0.126949   0.031126   0.221568
     33      -0.241308   0.166022  -0.063454   0.181505   0.045144   0.321357
     34       0.184517  -0.126949   0.181505   0.035127  -0.029663  -0.211153
     35       0.248362   0.000000   0.000000  -0.000000   0.000000   0.000191
     36       1.000000   0.000000  -0.000000  -0.000000   0.001308   0.033664
     37       0.000000   1.000000   0.000000   0.000000  -0.000165  -0.003130
     38      -0.000000   0.000000   1.000000  -0.000000   0.002449   0.046574
     39      -0.000000   0.000000  -0.000000   1.000000  -0.001753  -0.033332
     40       0.001308  -0.000165   0.002449  -0.001753   1.000000   0.236704
     41       0.033664  -0.003130   0.046574  -0.033332   0.236704   1.000000
     42       0.002496   0.012512   0.003741  -0.002678  -0.000000   0.000000
     43      -0.037136   0.003741  -0.042907   0.039842   0.000000   0.000000
     44       0.026578  -0.002678   0.039842  -0.015751  -0.000000  -0.000000
     45       0.000000  -0.000001   0.000000  -0.000000   0.000000   0.000000
     46       0.000066  -0.000141  -0.000023   0.000005   0.000000   0.000000
     47       0.000002  -0.000003   0.000002  -0.000002   0.000000   0.000018
     48       0.041675  -0.056003  -0.017661   0.008094   0.000005   0.000425
     49       0.000892  -0.000941   0.001098  -0.000852   0.001545   0.029086
     50       0.491129  -0.086456  -0.426615  -0.170529   0.000193   0.005990
     51       0.491240  -0.141053   0.005072   0.445752   0.000188   0.005861
     52       0.493976   0.460291   0.088331  -0.021609   0.001391   0.026765
                 42         43         44         45         46         47    
      0       0.000000   0.000000   0.000000   0.063655   0.005596   0.005572
      1      -0.000004  -0.000001   0.000000   0.496167   0.099522   0.099226
      2      -0.000013  -0.000003   0.000001  -0.469378   0.006303   0.012062
      3      -0.000003  -0.000000   0.000000  -0.008947  -0.104104   0.104178
      4       0.000001   0.000000   0.000000  -0.030863   0.074232  -0.072834
      5       0.000000   0.000000   0.000000   0.005621   0.063711   0.000103
      6      -0.000011  -0.000005   0.000003   0.099854   0.496384   0.006937
      7      -0.000027  -0.000014   0.000007  -0.104424  -0.243161  -0.001559
      8      -0.000014  -0.000005   0.000003   0.056799  -0.337643   0.009192
      9       0.000007   0.000003  -0.000000  -0.048505   0.219859  -0.006634
     10      -0.000000  -0.000000  -0.000000   0.005575   0.000103   0.063693
     11      -0.000162  -0.000000  -0.000013   0.099263   0.006918   0.496315
     12      -0.000405  -0.000000  -0.000033  -0.107082  -0.002072  -0.225354
     13      -0.000000   0.000024  -0.000000  -0.060532  -0.009236   0.328490
     14      -0.000033  -0.000000   0.000022   0.034395   0.006378  -0.250480
     15      -0.000000  -0.000000   0.000000   0.000105   0.005623   0.000014
     16      -0.000986  -0.000676   0.000403   0.006993   0.099875   0.002032
     17      -0.001605  -0.001251   0.000745  -0.010660  -0.116453  -0.001739
     18      -0.001251  -0.000638   0.000511   0.003140  -0.048080   0.002537
     19       0.000745   0.000511  -0.000084  -0.003069   0.024821  -0.001935
     20      -0.000044   0.000000  -0.000004   0.000105   0.000014   0.005661
     21      -0.016259   0.000143  -0.001361   0.006999   0.002028   0.100366
     22      -0.028467   0.000283  -0.002699  -0.010849  -0.001877  -0.114412
     23       0.000283   0.003771   0.000024  -0.003558  -0.002602   0.043912
     24      -0.002699   0.000024   0.003548   0.001662   0.001694  -0.040149
     25      -0.000516  -0.000232   0.000125   0.000014   0.000102   0.000102
     26      -0.041859  -0.018818   0.010108   0.001994   0.006870   0.006885
     27      -0.055505  -0.030884   0.016589  -0.003563  -0.008934  -0.008629
     28      -0.030884  -0.000691   0.007458  -0.000068  -0.006013   0.005694
     29       0.016589   0.007458   0.009188  -0.000234   0.003552  -0.004715
     30      -0.030644  -0.044445   0.029203   0.000000   0.000000   0.000000
     31      -0.160967  -0.233463   0.153401   0.000016   0.000178   0.000207
     32       0.080739  -0.189900   0.124777  -0.000038  -0.000328  -0.000373
     33      -0.189900  -0.063757   0.180974  -0.000001  -0.000147   0.000150
     34       0.124777   0.180974   0.092759  -0.000002   0.000078  -0.000135
     35       0.000030  -0.000441   0.000316   0.000000   0.000000   0.000000
     36       0.002496  -0.037136   0.026578   0.000000   0.000066   0.000002
     37       0.012512   0.003741  -0.002678  -0.000001  -0.000141  -0.000003
     38       0.003741  -0.042907   0.039842   0.000000  -0.000023   0.000002
     39      -0.002678   0.039842  -0.015751  -0.000000   0.000005  -0.000002
     40      -0.000000   0.000000  -0.000000   0.000000   0.000000   0.000000
     41       0.000000   0.000000  -0.000000   0.000000   0.000000   0.000018
     42       1.000000   0.000000   0.000000  -0.000000  -0.000001  -0.000034
     43       0.000000   1.000000  -0.000000  -0.000000  -0.000000   0.000005
     44       0.000000  -0.000000   1.000000   0.000000   0.000000  -0.000006
     45      -0.000000  -0.000000   0.000000   1.000000   0.052518   0.052314
     46      -0.000001  -0.000000   0.000000   0.052518   1.000000   0.000856
     47      -0.000034   0.000005  -0.000006   0.052314   0.000856   1.000000
     48      -0.000420  -0.000489   0.000314   0.000882   0.053804   0.000132
     49      -0.031903   0.011456  -0.010580   0.000841   0.000131   0.051037
     50      -0.000197  -0.007975   0.002678   0.000002   0.000236   0.000002
     51      -0.000532  -0.005110   0.006453   0.000002   0.000247   0.000002
     52       0.015854  -0.022859   0.017637   0.000000   0.000003   0.000000
                  48         49         50         51         52    
      0       0.000107   0.000101   0.000000   0.000000   0.000000
      1       0.007077   0.006853   0.000028   0.000029   0.000001
      2       0.008824   0.008950   0.000058   0.000059   0.000002
      3      -0.005869   0.005962  -0.000023  -0.000012  -0.000000
      4       0.004855  -0.003516   0.000008   0.000026   0.000000
      5       0.005712   0.000014   0.000002   0.000002   0.000000
      6       0.101005   0.002033   0.000660   0.000689   0.000013
      7       0.114875   0.001902   0.001232   0.001247   0.000031
      8      -0.044424   0.002597  -0.000284   0.000016   0.000001
      9       0.040558  -0.001690  -0.000025   0.000420   0.000002
     10       0.000014   0.005476   0.000000   0.000000   0.000000
     11       0.002036   0.097990   0.000031   0.000032   0.000002
     12       0.001734   0.115062   0.000055   0.000055   0.000006
     13      -0.002546   0.046347  -0.000039  -0.000027  -0.000002
     14       0.001941  -0.023753   0.000018   0.000038   0.000002
     15       0.063793   0.000108   0.000547   0.000574   0.000006
     16       0.496703   0.007119   0.020201   0.020853   0.001244
     17       0.221387   0.002199   0.028894   0.028513   0.002289
     18      -0.330624   0.009475  -0.010276   0.000281   0.000124
     19       0.251633  -0.006540  -0.001827   0.013684   0.000099
     20       0.000102   0.063807   0.000003   0.000003   0.000000
     21       0.006886   0.496757   0.000818   0.000829   0.000219
     22       0.001527   0.253092   0.001002   0.000968   0.000384
     23      -0.009132   0.333059  -0.001091  -0.000728  -0.000169
     24       0.006590  -0.216078   0.000449   0.000995   0.000151
     25       0.005516   0.005792   0.000669   0.000685   0.000070
     26       0.098502   0.102025   0.023071   0.023436   0.005423
     27      -0.012945  -0.005779   0.024519   0.023372   0.008606
     28      -0.103470   0.106409  -0.023865  -0.011904  -0.002028
     29       0.072271  -0.075860   0.005715   0.023460   0.002143
     30       0.000971   0.001374   0.005514   0.005495   0.005885
     31       0.029552   0.037337   0.098479   0.098233   0.103212
     32      -0.027057  -0.032286   0.031395   0.023825   0.111842
     33      -0.028714   0.033776  -0.120560  -0.061017  -0.052545
     34       0.018225  -0.026456   0.023868   0.108303   0.046785
     35       0.001616   0.000004   0.062370   0.062398   0.063094
     36       0.041675   0.000892   0.491129   0.491240   0.493976
     37      -0.056003  -0.000941  -0.086456  -0.141053   0.460291
     38      -0.017661   0.001098  -0.426615   0.005072   0.088331
     39       0.008094  -0.000852  -0.170529   0.445752  -0.021609
     40       0.000005   0.001545   0.000193   0.000188   0.001391
     41       0.000425   0.029086   0.005990   0.005861   0.026765
     42      -0.000420  -0.031903  -0.000197  -0.000532   0.015854
     43      -0.000489   0.011456  -0.007975  -0.005110  -0.022859
     44       0.000314  -0.010580   0.002678   0.006453   0.017637
     45       0.000882   0.000841   0.000002   0.000002   0.000000
     46       0.053804   0.000131   0.000236   0.000247   0.000003
     47       0.000132   0.051037   0.000002   0.000002   0.000000
     48       1.000000   0.000880   0.061769   0.063828   0.004029
     49       0.000880   1.000000   0.000351   0.000351   0.000271
     50       0.061769   0.000351   1.000000   0.175199   0.170066
     51       0.063828   0.000351   0.175199   1.000000   0.169863
     52       0.004029   0.000271   0.170066   0.169863   1.000000
---------------------
INITIAL GUESS: MOREAD
---------------------
Guess MOs are being read from file: 1.ges
Input Geometry matches current geometry (good)
Input basis set matches current basis set (good)
MOs were renormalized
MOs were reorthogonalized (Cholesky)
                      ------------------
                      INITIAL GUESS DONE (   0.0 sec)
                      ------------------
--------------
SCF ITERATIONS
--------------
ITER       Energy         Delta-E        Max-DP      RMS-DP      [F,P]     Damp
               ***  Starting incremental Fock matrix formation  ***
                      *** Initiating the SOSCF procedure ***
                      *** Re-Reading the Fockian *** 
                      *** Removing any level shift *** 
ITER      Energy       Delta-E        Grad      Rot      Max-DP    RMS-DP
  0   -377.70611757 -377.7061175729  0.000004  0.000004  0.000007  0.000000
               *** Restarting incremental Fock matrix formation ***
                 **** Energy Check signals convergence ****
              ***Rediagonalizing the Fockian in SOSCF/NRSCF***

               *****************************************************
               *                     SUCCESS                       *
               *           SCF CONVERGED AFTER   1 CYCLES          *
               *****************************************************


----------------
TOTAL SCF ENERGY
----------------

Total Energy       :         -377.70611757 Eh          -10277.90598 eV

Components:
Nuclear Repulsion  :          403.07883022 Eh           10968.33259 eV
Electronic Energy  :         -780.78494779 Eh          -21246.23857 eV
One Electron Energy:        -1314.57621531 Eh          -35771.43740 eV
Two Electron Energy:          533.79126751 Eh           14525.19884 eV

Virial components:
Potential Energy   :         -752.29776699 Eh          -20471.06297 eV
Kinetic Energy     :          374.59164942 Eh           10193.15699 eV
Virial Ratio       :            2.00831430


---------------
SCF CONVERGENCE
---------------

  Last Energy change         ...   -1.5666e-10  Tolerance :   1.0000e-06
  Last MAX-Density change    ...    7.3382e-06  Tolerance :   1.0000e-05
  Last RMS-Density change    ...    3.5741e-07  Tolerance :   1.0000e-06
  Last Orbital Gradient      ...    2.9479e-06  Tolerance :   5.0000e-05
  Last Orbital Rotation      ...    5.4533e-06  Tolerance :   5.0000e-05

             **** THE GBW FILE WAS UPDATED (1.gbw) ****
             **** DENSITY FILE WAS UPDATED (1.scfp) ****
             **** ENERGY FILE WAS UPDATED (1.en.tmp) ****
             **** THE GBW FILE WAS UPDATED (1.gbw) ****
             **** DENSITY FILE WAS UPDATED (1.scfp) ****
----------------
ORBITAL ENERGIES
----------------

  NO   OCC          E(Eh)            E(eV) 
   0   2.0000     -20.271235      -551.6084 
   1   2.0000     -11.121276      -302.6253 
   2   2.0000     -11.049038      -300.6596 
   3   2.0000     -11.039551      -300.4014 
   4   2.0000     -11.039255      -300.3934 
   5   2.0000     -11.038400      -300.3701 
   6   2.0000     -11.036658      -300.3227 
   7   2.0000     -11.036543      -300.3196 
   8   2.0000     -11.035682      -300.2962 
   9   2.0000      -1.329655       -36.1818 
  10   2.0000      -1.105888       -30.0928 
  11   2.0000      -0.991381       -26.9769 
  12   2.0000      -0.967364       -26.3233 
  13   2.0000      -0.942759       -25.6538 
  14   2.0000      -0.801561       -21.8116 
  15   2.0000      -0.778200       -21.1759 
  16   2.0000      -0.703646       -19.1472 
  17   2.0000      -0.654367       -17.8062 
  18   2.0000      -0.597998       -16.2724 
  19   2.0000      -0.579572       -15.7710 
  20   2.0000      -0.573109       -15.5951 
  21   2.0000      -0.564423       -15.3587 
  22   2.0000      -0.545016       -14.8306 
  23   2.0000      -0.519422       -14.1342 
  24   2.0000      -0.499139       -13.5823 
  25   2.0000      -0.476084       -12.9549 
  26   2.0000      -0.454345       -12.3634 
  27   2.0000      -0.436666       -11.8823 
  28   2.0000      -0.413826       -11.2608 
  29   2.0000      -0.324317        -8.8251 
  30   2.0000      -0.290518        -7.9054 
  31   2.0000      -0.279944        -7.6176 
  32   0.0000       0.216260         5.8847 
  33   0.0000       0.264643         7.2013 
  34   0.0000       0.350018         9.5245 
  35   0.0000       0.515249        14.0206 
  36   0.0000       0.572720        15.5845 
  37   0.0000       0.621503        16.9119 
  38   0.0000       0.636941        17.3320 
  39   0.0000       0.674039        18.3415 
  40   0.0000       0.692780        18.8515 
  41   0.0000       0.714775        19.4500 
  42   0.0000       0.716598        19.4996 
  43   0.0000       0.731126        19.8950 
  44   0.0000       0.741589        20.1797 
  45   0.0000       0.781667        21.2703 
  46   0.0000       0.860541        23.4165 
  47   0.0000       0.889465        24.2036 
  48   0.0000       0.894216        24.3328 
  49   0.0000       0.914680        24.8897 
  50   0.0000       1.019317        27.7370 
  51   0.0000       1.122720        30.5508 
  52   0.0000       1.153187        31.3798 
------------------
MOLECULAR ORBITALS
------------------
                      0         1         2         3         4         5   
                 -20.27124 -11.12128 -11.04904 -11.03955 -11.03925 -11.03840
                   2.00000   2.00000   2.00000   2.00000   2.00000   2.00000
                  --------  --------  --------  --------  --------  --------
  0C   1s        -0.000000  0.000027  0.000011 -0.984870 -0.093846  0.035976
  0C   2s         0.000000 -0.000007  0.000004 -0.035684 -0.003307  0.001401
  0C   1pz        0.000004  0.000015  0.000005 -0.001022  0.000077 -0.000097
  0C   1px       -0.000003  0.000000  0.000000 -0.000027 -0.000164 -0.000076
  0C   1py        0.000002  0.000001  0.000000 -0.000062  0.000122  0.000046
  1C   1s         0.000001  0.000042 -0.000208 -0.049134 -0.062707 -0.027191
  1C   2s        -0.000024  0.000047 -0.000066  0.004753  0.005462  0.000154
  1C   1pz       -0.000016  0.000032 -0.000043 -0.002486  0.004174  0.000825
  1C   1px       -0.000004  0.000028 -0.000000  0.003113  0.000426 -0.000165
  1C   1py        0.000002 -0.000017 -0.000004 -0.002402  0.000029  0.000182
  2C   1s         0.000002  0.000054 -0.000028 -0.039743  0.009113  0.000217
  2C   2s        -0.000025  0.000111 -0.000010  0.005635  0.001018 -0.000567
  2C   1pz       -0.000019  0.000074 -0.000007 -0.002294 -0.000134 -0.000205
  2C   1px       -0.000015 -0.000031 -0.000001 -0.003200 -0.000472  0.000132
  2C   1py        0.000009  0.000028  0.000000  0.002085  0.000324 -0.000110
  3C   1s         0.000004  0.000174 -0.001536  0.089774 -0.973019 -0.159285
  3C   2s         0.000040 -0.000138 -0.000033  0.003068 -0.034334 -0.012808
  3C   1pz       -0.000059 -0.000045 -0.000177 -0.000347  0.000682 -0.002271
  3C   1px        0.000036  0.000030 -0.000053 -0.000022 -0.000253 -0.003343
  3C   1py       -0.000030 -0.000025  0.000025 -0.000012  0.000235  0.002190
  4C   1s        -0.000006  0.000326 -0.000443  0.009569  0.005330  0.080955
  4C   2s         0.000011 -0.000278 -0.000066  0.000060  0.001027 -0.004225
  4C   1pz       -0.000048  0.000094 -0.000058 -0.000244  0.000281 -0.002133
  4C   1px        0.000163  0.000004  0.000017  0.000082 -0.000534  0.003084
  4C   1py       -0.000119  0.000005 -0.000017 -0.000077  0.000401 -0.002353
  5C   1s        -0.000027  0.001127 -0.001828  0.048889 -0.158460  0.974772
  5C   2s         0.000365  0.005883  0.000132  0.001154  0.001207  0.036561
  5C   1pz        0.000177  0.004123 -0.000010 -0.000021 -0.002206 -0.001251
  5C   1px        0.000394  0.000362 -0.000021  0.000257 -0.003131 -0.000681
  5C   1py       -0.000266  0.000064  0.000015 -0.000184  0.002044  0.000380
  6C   1s         0.000547 -0.992506  0.002307  0.000088 -0.000543  0.002096
  6C   2s        -0.007524 -0.033221 -0.006010 -0.000225  0.000767 -0.005989
  6C   1pz       -0.003247 -0.000239 -0.002247  0.000158 -0.000624  0.004114
  6C   1px       -0.004720 -0.000533  0.002999  0.000004 -0.000051  0.000075
  6C   1py        0.003102  0.000363 -0.002306  0.000010 -0.000012  0.000268
  7C   1s        -0.000028  0.001335  0.991882  0.000236 -0.001835  0.001597
  7C   2s         0.000356  0.005536  0.038211  0.000016 -0.000074  0.000248
  7C   1pz        0.000347 -0.001823 -0.000067  0.000014 -0.000116  0.000026
  7C   1px        0.000334  0.002997  0.000030 -0.000002  0.000025  0.000013
  7C   1py       -0.000209 -0.002269 -0.000037  0.000002 -0.000027 -0.000006
  8O   1s         0.994239 -0.000134 -0.000023  0.000000 -0.000007 -0.000023
  8O   2s         0.026281  0.005994  0.000302  0.000007  0.000033  0.000324
  8O   1pz       -0.002908 -0.000851  0.000084 -0.000003 -0.000011 -0.000197
  8O   1px       -0.004194 -0.001229 -0.000176 -0.000004 -0.000007 -0.000092
  8O   1py        0.002754  0.000807  0.000132  0.000002  0.000004  0.000050
  9H   1s         0.000001  0.000007  0.000000  0.006787  0.000745 -0.000303
 10H   1s         0.000001  0.000007  0.000007  0.000250  0.000339  0.000084
 11H   1s         0.000010  0.000003  0.000001  0.000175  0.000011 -0.000063
 12H   1s        -0.000017  0.000104 -0.000136 -0.000527  0.006740  0.001171
 13H   1s        -0.000316  0.000323 -0.000013  0.000018  0.000061 -0.000468
 14H   1s         0.000030  0.000139 -0.007009 -0.000006 -0.000001 -0.000102
 15H   1s         0.000030  0.000134 -0.007008 -0.000006 -0.000001 -0.000106
 16H   1s        -0.000246  0.000079 -0.007026 -0.000010  0.000068 -0.000097
                      6         7         8         9        10        11   
                 -11.03666 -11.03654 -11.03568  -1.32966  -1.10589  -0.99138
                   2.00000   2.00000   2.00000   2.00000   2.00000   2.00000
                  --------  --------  --------  --------  --------  --------
  0C   1s         0.019885  0.047987  0.040209 -0.000836 -0.100475 -0.112071
  0C   2s         0.002416  0.008699  0.008873  0.001923  0.252511  0.297479
  0C   1pz        0.000411  0.002258  0.002514  0.000750  0.060528  0.032988
  0C   1px       -0.001692 -0.002767  0.003053  0.000112  0.000193  0.016424
  0C   1py        0.001231  0.002139 -0.001963 -0.000020  0.004654 -0.009026
  1C   1s        -0.372841 -0.915081 -0.029854 -0.001232 -0.102351 -0.046379
  1C   2s        -0.014305 -0.034539 -0.001628  0.002956  0.256802  0.122140
  1C   1pz       -0.000515 -0.000689  0.000151  0.001294  0.033858 -0.063469
  1C   1px       -0.000546 -0.000938 -0.000191  0.000404  0.043303  0.044031
  1C   1py        0.000346  0.000610  0.000147 -0.000184 -0.027989 -0.036215
  2C   1s         0.179227 -0.039797 -0.974162 -0.001692 -0.100236 -0.087840
  2C   2s        -0.000238  0.000690 -0.037669  0.004051  0.251307  0.232305
  2C   1pz       -0.003883  0.001851 -0.001370  0.001901  0.030339 -0.036973
  2C   1px       -0.000080  0.000208  0.000982 -0.000344 -0.042158 -0.042769
  2C   1py       -0.000250 -0.000001 -0.000804  0.000394  0.032261  0.027371
  3C   1s         0.041252  0.049176 -0.007288 -0.004836 -0.107065  0.065468
  3C   2s         0.005060  0.008373  0.000243  0.011702  0.269889 -0.175651
  3C   1pz       -0.001444 -0.004262 -0.000177  0.003429 -0.024839 -0.078453
  3C   1px        0.000270  0.000008  0.000202  0.004118  0.044574 -0.037160
  3C   1py       -0.000306 -0.000343 -0.000157 -0.002649 -0.033564  0.020134
  4C   1s         0.897270 -0.374790  0.179286 -0.008496 -0.102828  0.008539
  4C   2s         0.032444 -0.013513  0.013977  0.019898  0.258465 -0.024455
  4C   1pz        0.000396 -0.000078 -0.004520  0.006911 -0.029210 -0.082898
  4C   1px       -0.001098  0.000232 -0.000401 -0.004996 -0.046000  0.035958
  4C   1py        0.000808 -0.000170 -0.000073  0.004078  0.030273 -0.032028
  5C   1s        -0.078148  0.011649 -0.018162 -0.023838 -0.110540  0.113394
  5C   2s        -0.009789  0.002550 -0.002200  0.056675  0.278789 -0.303071
  5C   1pz        0.002250 -0.000765  0.000392  0.028061 -0.055450 -0.029666
  5C   1px       -0.002623  0.001376 -0.000647  0.003866 -0.003796  0.032406
  5C   1py        0.002036 -0.001036  0.000490 -0.000555 -0.001715 -0.025254
  6C   1s         0.000178 -0.000160 -0.000042 -0.129511 -0.017159  0.073991
  6C   2s         0.000622 -0.000051  0.000214  0.293422  0.048836 -0.209717
  6C   1pz       -0.000393  0.000019 -0.000139  0.075904 -0.056122  0.075742
  6C   1px       -0.000133  0.000027  0.000000  0.112722 -0.026158  0.104780
  6C   1py        0.000064 -0.000018 -0.000011 -0.074225  0.014202 -0.068499
  7C   1s         0.000257 -0.000273  0.000002 -0.021858 -0.011219  0.109603
  7C   2s        -0.000079  0.000029 -0.000012  0.054500  0.029842 -0.303750
  7C   1pz        0.000048 -0.000038  0.000008 -0.012232 -0.008599  0.032547
  7C   1px       -0.000025  0.000003 -0.000001  0.020648  0.002384 -0.017181
  7C   1py        0.000022 -0.000005  0.000001 -0.015628 -0.002363  0.014820
  8O   1s        -0.000002  0.000001 -0.000002 -0.213443  0.026743 -0.057930
  8O   2s         0.000051 -0.000026  0.000011  0.742010 -0.099569  0.225597
  8O   1pz        0.000026 -0.000005 -0.000005 -0.086498 -0.004078  0.006684
  8O   1px       -0.000004 -0.000000  0.000010 -0.123710  0.008386  0.009146
  8O   1py        0.000005 -0.000000 -0.000008  0.081189 -0.006282 -0.005955
  9H   1s        -0.000241 -0.000394 -0.000389  0.000193  0.044052  0.074532
 10H   1s         0.002519  0.006368  0.000289  0.000282  0.045041  0.029943
 11H   1s        -0.001116  0.000326  0.006759  0.000419  0.043632  0.057750
 12H   1s        -0.000426 -0.000397  0.000089  0.002039  0.049137 -0.055725
 13H   1s        -0.006168  0.002636 -0.001345  0.007101  0.043598 -0.005618
 14H   1s         0.000012  0.000003  0.000001  0.005699  0.007850 -0.080520
 15H   1s         0.000012  0.000003  0.000001  0.005679  0.007917 -0.080694
 16H   1s         0.000001  0.000008  0.000001  0.009373  0.003110 -0.065445
                     12        13        14        15        16        17   
                  -0.96736  -0.94276  -0.80156  -0.77820  -0.70365  -0.65437
                   2.00000   2.00000   2.00000   2.00000   2.00000   2.00000
                  --------  --------  --------  --------  --------  --------
  0C   1s        -0.043861  0.082785 -0.109858 -0.011763 -0.039744  0.042775
  0C   2s         0.117766 -0.225085  0.319085  0.034823  0.116545 -0.143011
  0C   1pz        0.005648 -0.008930 -0.071780 -0.003623  0.054743  0.260103
  0C   1px       -0.100224 -0.035377 -0.023748  0.186168  0.002376 -0.009397
  0C   1py        0.071440  0.024354  0.011132 -0.132155  0.002660  0.027256
  1C   1s        -0.141250 -0.005439  0.023681  0.102734  0.051148 -0.036507
  1C   2s         0.378530  0.014199 -0.067098 -0.300553 -0.163214  0.111106
  1C   1pz        0.038698  0.079283 -0.162673  0.116062  0.031647  0.076465
  1C   1px        0.008667 -0.033483  0.079779  0.016059  0.160694  0.069997
  1C   1py       -0.003070  0.029996 -0.069408 -0.002180 -0.111301 -0.043541
  2C   1s         0.097129  0.072906  0.049958 -0.093013  0.050537 -0.031896
  2C   2s        -0.260217 -0.197701 -0.142859  0.272023 -0.161301  0.095583
  2C   1pz       -0.093604  0.046718 -0.142672 -0.146615  0.015838  0.101741
  2C   1px       -0.026309  0.029688 -0.085016 -0.009134 -0.156880 -0.057193
  2C   1py        0.011233 -0.017335  0.048926 -0.005119  0.112388  0.048566
  3C   1s        -0.098992 -0.079055  0.077548 -0.090748 -0.002237  0.032901
  3C   2s         0.265814  0.214744 -0.222932  0.266782  0.001391 -0.113087
  3C   1pz       -0.091523  0.009051  0.100373  0.153144  0.037288 -0.151711
  3C   1px       -0.029707  0.030288  0.071972  0.007719  0.168593  0.111845
  3C   1py        0.013786 -0.020754 -0.043054  0.006633 -0.116437 -0.091297
  4C   1s         0.142973 -0.021690  0.058883  0.102334  0.002027  0.027695
  4C   2s        -0.383455  0.058104 -0.168717 -0.299871 -0.011885 -0.095022
  4C   1pz        0.035044  0.072426  0.132906 -0.125625  0.028144 -0.176754
  4C   1px        0.011228 -0.035724 -0.063445 -0.012080 -0.163212 -0.093942
  4C   1py       -0.005174  0.031025  0.055438 -0.001352  0.117884  0.052590
  5C   1s         0.046907 -0.074994 -0.087050 -0.008809 -0.041532  0.008841
  5C   2s        -0.126117  0.202964  0.255286  0.026411  0.117422 -0.024422
  5C   1pz        0.004763 -0.055075  0.159336  0.006359 -0.260422 -0.003760
  5C   1px       -0.104847 -0.011403  0.024505 -0.191860 -0.008746 -0.017286
  5C   1py        0.074671  0.003714 -0.004895  0.136424 -0.014247  0.011851
  6C   1s         0.002971  0.042802 -0.080862 -0.007389  0.099440 -0.087954
  6C   2s        -0.009319 -0.119340  0.253668  0.025167 -0.324457  0.296921
  6C   1pz        0.047006 -0.087113 -0.182936 -0.006845  0.096133  0.115990
  6C   1px       -0.009873  0.107873 -0.014894 -0.015511  0.034800 -0.060547
  6C   1py        0.010656 -0.083399 -0.003682  0.010422 -0.017243  0.051893
  7C   1s        -0.021564  0.171760  0.049110  0.029842 -0.038069  0.023181
  7C   2s         0.059902 -0.485305 -0.146846 -0.091778  0.118519 -0.076137
  7C   1pz       -0.001240  0.006689 -0.060125 -0.037066  0.107998 -0.036967
  7C   1px        0.000986 -0.012635  0.039547  0.013232 -0.082327  0.179708
  7C   1py       -0.000807  0.009676 -0.032731 -0.012166  0.066787 -0.130873
  8O   1s        -0.010655 -0.029946  0.043744 -0.010323 -0.053429  0.053052
  8O   2s         0.042123  0.119394 -0.187746  0.045176  0.242786 -0.253126
  8O   1pz        0.019183 -0.033854 -0.093331  0.024514  0.112940  0.014390
  8O   1px       -0.008446  0.028458 -0.022979 -0.005534  0.081249 -0.189155
  8O   1py        0.007486 -0.022841  0.009049  0.005804 -0.048958  0.135462
  9H   1s         0.032187 -0.066868  0.157760  0.018331  0.015182 -0.246425
 10H   1s         0.103677  0.003218 -0.028622 -0.157054 -0.185710 -0.027260
 11H   1s        -0.070273 -0.058374 -0.062807  0.141945 -0.179213 -0.036830
 12H   1s         0.075694  0.049842 -0.100890  0.142796 -0.103558 -0.197768
 13H   1s        -0.102139  0.019406 -0.063057 -0.153521 -0.098474 -0.176152
 14H   1s         0.016771 -0.132363 -0.056733 -0.027636  0.063582 -0.116199
 15H   1s         0.016813 -0.132282 -0.056604 -0.027150  0.063150 -0.118172
 16H   1s         0.016387 -0.132538 -0.080724 -0.049268  0.106839 -0.030193
                     18        19        20        21        22        23   
                  -0.59800  -0.57957  -0.57311  -0.56442  -0.54502  -0.51942
                   2.00000   2.00000   2.00000   2.00000   2.00000   2.00000
                  --------  --------  --------  --------  --------  --------
  0C   1s         0.040374 -0.015697 -0.040138  0.000261 -0.005695  0.004409
  0C   2s        -0.137713  0.053680  0.130812 -0.000870  0.018511 -0.014218
  0C   1pz        0.188434 -0.021951  0.218834 -0.002383  0.040919 -0.042499
  0C   1px        0.078870  0.209120 -0.002782  0.014808 -0.116058  0.148827
  0C   1py       -0.040946 -0.149899  0.019420  0.019912  0.085590 -0.108508
  1C   1s        -0.042159  0.016985  0.015854 -0.000097 -0.021138 -0.007966
  1C   2s         0.139835 -0.058868 -0.059888  0.000375  0.064996  0.028093
  1C   1pz        0.047744  0.278216  0.081184 -0.003054  0.176410  0.172777
  1C   1px       -0.063217 -0.044401  0.183648  0.019610  0.249853 -0.086400
  1C   1py        0.048543  0.053447 -0.123423  0.030854 -0.162798  0.075222
  2C   1s        -0.048440  0.011650  0.013339 -0.000160  0.020834  0.010564
  2C   2s         0.161246 -0.039230 -0.051600  0.000565 -0.064840 -0.035847
  2C   1pz       -0.132209 -0.213976  0.132550 -0.002827 -0.143315 -0.173877
  2C   1px        0.008719 -0.125689 -0.202723  0.019377  0.190022 -0.051525
  2C   1py       -0.016655  0.072049  0.154217  0.026207 -0.145786  0.023054
  3C   1s         0.039675 -0.026376 -0.011212  0.000225 -0.026074  0.010744
  3C   2s        -0.132270  0.088003  0.041465 -0.000768  0.084079 -0.041438
  3C   1pz       -0.142802 -0.229856 -0.002011 -0.004608 -0.148721 -0.203505
  3C   1px        0.031671 -0.146539 -0.174198  0.041769  0.180086  0.018013
  3C   1py       -0.033769  0.085473  0.123682  0.058052 -0.139044 -0.028380
  4C   1s         0.057139 -0.005587 -0.021684  0.000116  0.022104 -0.011946
  4C   2s        -0.191840  0.020276  0.073592 -0.000419 -0.067691  0.043674
  4C   1pz        0.005673  0.234451 -0.042345 -0.003822  0.166262  0.186751
  4C   1px       -0.110565 -0.057453  0.125252  0.033525  0.253275 -0.031831
  4C   1py        0.078694  0.059114 -0.091810  0.050735 -0.166084  0.037748
  5C   1s        -0.032287  0.019007  0.069937 -0.000423  0.008784 -0.001719
  5C   2s         0.104737 -0.062876 -0.234758  0.001439 -0.030221  0.006174
  5C   1pz        0.123683 -0.005066  0.159734 -0.008705  0.047964 -0.054370
  5C   1px        0.078555  0.212940  0.017946  0.071126 -0.117212  0.098178
  5C   1py       -0.046110 -0.151476  0.000552  0.098998  0.087286 -0.073140
  6C   1s         0.024884 -0.022701 -0.023351  0.000014 -0.001267  0.005012
  6C   2s        -0.086613  0.072466  0.080813 -0.000036  0.004943 -0.007381
  6C   1pz       -0.297280  0.071216 -0.095656 -0.017400 -0.048234  0.072144
  6C   1px        0.105989  0.133730  0.005102  0.165934  0.002479 -0.273720
  6C   1py       -0.098681 -0.089608 -0.009366  0.233277 -0.004394  0.200525
  7C   1s        -0.018801 -0.005186  0.005074 -0.000095 -0.004916 -0.004167
  7C   2s         0.065788  0.019341 -0.014066  0.000306  0.017410  0.012138
  7C   1pz       -0.012822  0.188163 -0.215825 -0.030423  0.058810 -0.346456
  7C   1px       -0.228764  0.050309 -0.095834  0.289242  0.011818  0.070243
  7C   1py        0.161033 -0.021791  0.054577  0.406732 -0.002236 -0.076993
  8O   1s        -0.023058  0.055256  0.003541  0.000109  0.000703 -0.047478
  8O   2s         0.112905 -0.279797 -0.015280 -0.000564 -0.000179  0.256569
  8O   1pz       -0.209084 -0.162819 -0.135615 -0.012551 -0.058156  0.360166
  8O   1px        0.179396 -0.173554  0.039768  0.121004  0.045177  0.166380
  8O   1py       -0.143979  0.110620 -0.037611  0.172141 -0.035752 -0.089911
  9H   1s        -0.211749  0.048675 -0.117002  0.000234 -0.029352  0.035559
 10H   1s         0.100716 -0.099672 -0.219330  0.001801 -0.269821  0.022533
 11H   1s         0.137922 -0.037812 -0.260133  0.001053  0.208764  0.012897
 12H   1s        -0.137058  0.066510  0.192786 -0.000659 -0.200899 -0.119456
 13H   1s        -0.157385  0.048183  0.130687 -0.001591  0.261118  0.071082
 14H   1s         0.145584 -0.053643  0.088232 -0.352442 -0.016858  0.026249
 15H   1s         0.147305 -0.057258  0.095800  0.347130 -0.016218  0.029555
 16H   1s        -0.027181  0.161897 -0.201275  0.005203  0.057333 -0.281605
                     24        25        26        27        28        29   
                  -0.49914  -0.47608  -0.45434  -0.43667  -0.41383  -0.32432
                   2.00000   2.00000   2.00000   2.00000   2.00000   2.00000
                  --------  --------  --------  --------  --------  --------
  0C   1s         0.011831  0.000027 -0.008024 -0.001741 -0.000007 -0.002754
  0C   2s        -0.035798 -0.000097  0.017719  0.004779  0.000016  0.013270
  0C   1pz       -0.232169  0.017368  0.293218  0.053810  0.016535 -0.014895
  0C   1px       -0.069169 -0.156528 -0.052508  0.251141 -0.146174  0.012535
  0C   1py        0.030810 -0.221308  0.060616 -0.173531 -0.206179 -0.010002
  1C   1s         0.005487 -0.000031 -0.005137  0.007436  0.000028 -0.009933
  1C   2s        -0.022429  0.000106  0.021531 -0.015759 -0.000095  0.037585
  1C   1pz        0.096762  0.018419 -0.274878 -0.045622  0.013649  0.093697
  1C   1px        0.013772 -0.161969  0.078877 -0.218879 -0.125433  0.002669
  1C   1py       -0.001826 -0.228480 -0.077496  0.151534 -0.177200  0.005508
  2C   1s         0.013616  0.000029  0.001662 -0.005262 -0.000009 -0.006832
  2C   2s        -0.046700 -0.000103  0.002694  0.010870  0.000039  0.024123
  2C   1pz        0.083619  0.017738 -0.296733 -0.071594  0.013046  0.073003
  2C   1px        0.131067 -0.161305  0.029014 -0.227159 -0.117904 -0.011215
[...]
  18  102578.8     97.5   1.526869852   1.07045   0.09589  -0.05861   0.03135
  19  102804.7     97.3   17.853917967  12.54450   0.10571  -0.11245  -0.21247
  20  105358.3     94.9   4.270716723   3.07522   0.07660  -0.05201   0.00932

-------------------------------------------------------------------
                      TRANSIENT CD SPECTRUM                        
-------------------------------------------------------------------
State   Energy Wavelength       R         MX        MY        MZ   
        (cm-1)   (nm)       (1e40*sgs)   (au)      (au)      (au)  
-------------------------------------------------------------------
  13   95580.4    104.6      5.69195   0.01285  -0.06267   0.02494
  14   96212.5    103.9     -7.29633   0.00475   0.12155   0.01355
  15   97544.6    102.5     -1.65456   0.12523   0.17197  -0.02743
  16  100032.9    100.0    -70.63243  -0.12439  -0.16579   0.06109
  17  100856.1     99.2      6.25686  -0.02917  -0.08419  -0.02300
  18  102578.8     97.5     -1.83980   0.13958   0.18855  -0.04618
  19  102804.7     97.3     75.47579  -0.15752  -0.13450   0.02813
  20  105358.3     94.9     13.06174  -0.06619  -0.05332   0.02887

Transitions starting from IROOT 13:

-----------------------------------------------------------------------------
    TRANSIENT ABSORPTION SPECTRUM VIA TRANSITION ELECTRIC DIPOLE MOMENTS     
-----------------------------------------------------------------------------
State   Energy  Wavelength   fosc         T2         TX        TY        TZ  
        (cm-1)    (nm)                  (au**2)     (au)      (au)      (au) 
-----------------------------------------------------------------------------
  14   96212.5    103.9   15.162049302   9.97003  -0.64546   0.23813  -3.08167
  15   97544.6    102.5   10.189645546   6.79312  -0.40865  -0.08451  -2.57274
  16  100032.9    100.0   17.387974397  11.88773  -0.81838   0.23313  -3.34120
  17  100856.1     99.2   1.746033169   1.20354  -0.51999   0.21121   0.94263
  18  102578.8     97.5   1.408604622   0.98754  -0.52994   0.40750   0.73528
  19  102804.7     97.3   17.793237782  12.50187  -1.42510   1.10132   3.04270
  20  105358.3     94.9   4.270640988   3.07517  -1.39490   0.95178  -0.47279

-----------------------------------------------------------------------------
    TRANSIENT ABSORPTION SPECTRUM VIA TRANSITION VELOCITY DIPOLE MOMENTS     
-----------------------------------------------------------------------------
State   Energy  Wavelength   fosc         P2         PX        PY        PZ  
        (cm-1)    (nm)                  (au**2)     (au)      (au)      (au) 
-----------------------------------------------------------------------------
  14   96212.5    103.9   15.162049302   9.97003   0.04914  -0.00400   0.22965
  15   97544.6    102.5   10.189645546   6.79312   0.08694  -0.00218   0.22833
  16  100032.9    100.0   17.387974397  11.88773   0.00597  -0.00622   0.22266
  17  100856.1     99.2   1.746033169   1.20354   0.00237   0.07130   0.08234
  18  102578.8     97.5   1.408604622   0.98754   0.08904  -0.05533   0.01106
  19  102804.7     97.3   17.793237782  12.50187   0.10636  -0.11174  -0.21227
  20  105358.3     94.9   4.270640988   3.07517   0.07601  -0.05280   0.00941

-------------------------------------------------------------------
                      TRANSIENT CD SPECTRUM                        
-------------------------------------------------------------------
State   Energy Wavelength       R         MX        MY        MZ   
        (cm-1)   (nm)       (1e40*sgs)   (au)      (au)      (au)  
-------------------------------------------------------------------
  14   96212.5    103.9     15.39648   0.00974   0.11695  -0.00360
  15   97544.6    102.5     -3.95160   0.17927   0.24842  -0.03338
  16  100032.9    100.0    -40.51785  -0.15161  -0.14777   0.05255
  17  100856.1     99.2    -17.61688   0.01065  -0.02757  -0.02759
  18  102578.8     97.5    -14.25531   0.11830   0.15786  -0.04335
  19  102804.7     97.3    111.16272  -0.14133  -0.14257   0.06290
  20  105358.3     94.9     27.61029  -0.08541  -0.03790   0.05185

Transitions starting from IROOT 14:

-----------------------------------------------------------------------------
    TRANSIENT ABSORPTION SPECTRUM VIA TRANSITION ELECTRIC DIPOLE MOMENTS     
-----------------------------------------------------------------------------
State   Energy  Wavelength   fosc         T2         TX        TY        TZ  
        (cm-1)    (nm)                  (au**2)     (au)      (au)      (au) 
-----------------------------------------------------------------------------
  15   97544.6    102.5   10.282656087   6.85512  -0.43638  -0.12154  -2.57875
  16  100032.9    100.0   17.788642031  12.16165  -0.62818   0.09147  -3.42909
  17  100856.1     99.2   1.775483735   1.22384  -0.53232   0.19335   0.95031
  18  102578.8     97.5   1.396355438   0.97895  -0.53848   0.38693   0.73435
  19  102804.7     97.3   14.790005298  10.39174  -1.29668   0.99055   2.78014
  20  105358.3     94.9   5.683469161   4.09250  -1.57945   1.06655  -0.67847

-----------------------------------------------------------------------------
    TRANSIENT ABSORPTION SPECTRUM VIA TRANSITION VELOCITY DIPOLE MOMENTS     
-----------------------------------------------------------------------------
State   Energy  Wavelength   fosc         P2         PX        PY        PZ  
        (cm-1)    (nm)                  (au**2)     (au)      (au)      (au) 
-----------------------------------------------------------------------------
  15   97544.6    102.5   10.282656087   6.85512   0.09550   0.00990   0.22741
  16  100032.9    100.0   17.788642031  12.16165   0.02411  -0.01898   0.22411
  17  100856.1     99.2   1.775483735   1.22384   0.00566   0.07595   0.08196
  18  102578.8     97.5   1.396355438   0.97895   0.09298  -0.04946   0.01059
  19  102804.7     97.3   14.790005298  10.39174   0.10180  -0.10899  -0.21672
  20  105358.3     94.9   5.683469161   4.09250   0.08701  -0.06041   0.01179

-------------------------------------------------------------------
                      TRANSIENT CD SPECTRUM                        
-------------------------------------------------------------------
State   Energy Wavelength       R         MX        MY        MZ   
        (cm-1)   (nm)       (1e40*sgs)   (au)      (au)      (au)  
-------------------------------------------------------------------
  15   97544.6    102.5    -62.71472   0.24278   0.20645   0.00077
  16  100032.9    100.0    -53.24672  -0.02803   0.02658   0.03878
  17  100856.1     99.2    -17.77315   0.02790  -0.03842  -0.01622
  18  102578.8     97.5     -1.89857   0.15075   0.13900   0.03182
  19  102804.7     97.3    102.31412  -0.15136  -0.15558   0.06290
  20  105358.3     94.9     27.93896  -0.09066  -0.04520   0.05265

Transitions starting from IROOT 15:

-----------------------------------------------------------------------------
    TRANSIENT ABSORPTION SPECTRUM VIA TRANSITION ELECTRIC DIPOLE MOMENTS     
-----------------------------------------------------------------------------
State   Energy  Wavelength   fosc         T2         TX        TY        TZ  
        (cm-1)    (nm)                  (au**2)     (au)      (au)      (au) 
-----------------------------------------------------------------------------
  16  100032.9    100.0   17.786618963  12.16027  -0.61815   0.10670  -3.43027
  17  100856.1     99.2   4.424881355   3.05008  -0.46886   0.20483   1.66982
  18  102578.8     97.5   1.261898852   0.88469  -0.06967   0.06941   0.93542
  19  102804.7     97.3   14.823982256  10.41561  -1.29539   1.00632   2.77937
  20  105358.3     94.9   5.675673647   4.08689  -1.57454   1.07202  -0.67711

-----------------------------------------------------------------------------
    TRANSIENT ABSORPTION SPECTRUM VIA TRANSITION VELOCITY DIPOLE MOMENTS     
-----------------------------------------------------------------------------
State   Energy  Wavelength   fosc         P2         PX        PY        PZ  
        (cm-1)    (nm)                  (au**2)     (au)      (au)      (au) 
-----------------------------------------------------------------------------
  16  100032.9    100.0   17.786618963  12.16027   0.02711  -0.01457   0.22376
  17  100856.1     99.2   4.424881355   3.05008  -0.00294   0.08238   0.08650
  18  102578.8     97.5   1.261898852   0.88469   0.07810  -0.03805   0.02159
  19  102804.7     97.3   14.823982256  10.41561   0.10241  -0.10856  -0.21689
  20  105358.3     94.9   5.675673647   4.08689   0.08696  -0.06037   0.01176

-------------------------------------------------------------------
                      TRANSIENT CD SPECTRUM                        
-------------------------------------------------------------------
State   Energy Wavelength       R         MX        MY        MZ   
        (cm-1)   (nm)       (1e40*sgs)   (au)      (au)      (au)  
-------------------------------------------------------------------
  16  100032.9    100.0    -69.41578  -0.01383   0.01591   0.04591
  17  100856.1     99.2    -13.45334  -0.02547  -0.11357  -0.01031
  18  102578.8     97.5     17.00727   0.04814  -0.00448   0.04248
  19  102804.7     97.3    100.46297  -0.19295  -0.12572   0.03226
  20  105358.3     94.9     13.49999  -0.08995  -0.04186   0.10060

Transitions starting from IROOT 16:

-----------------------------------------------------------------------------
    TRANSIENT ABSORPTION SPECTRUM VIA TRANSITION ELECTRIC DIPOLE MOMENTS     
-----------------------------------------------------------------------------
State   Energy  Wavelength   fosc         T2         TX        TY        TZ  
        (cm-1)    (nm)                  (au**2)     (au)      (au)      (au) 
-----------------------------------------------------------------------------
  17  100856.1     99.2   4.463460475   3.07667  -0.48781   0.17769   1.67545
  18  102578.8     97.5   1.259639046   0.88310  -0.09477   0.04068   0.93406
  19  102804.7     97.3   14.467953050  10.16546  -1.55158   1.16884   2.52822
  20  105358.3     94.9   5.083848844   3.66073  -1.46494   1.09120   0.56918

-----------------------------------------------------------------------------
    TRANSIENT ABSORPTION SPECTRUM VIA TRANSITION VELOCITY DIPOLE MOMENTS     
-----------------------------------------------------------------------------
State   Energy  Wavelength   fosc         P2         PX        PY        PZ  
        (cm-1)    (nm)                  (au**2)     (au)      (au)      (au) 
-----------------------------------------------------------------------------
  17  100856.1     99.2   4.463460475   3.07667   0.00315   0.09104   0.08581
  18  102578.8     97.5   1.259639046   0.88310   0.08514  -0.02843   0.02081
  19  102804.7     97.3   14.467953050  10.16546   0.11251  -0.11590  -0.21709
  20  105358.3     94.9   5.083848844   3.66073   0.08886  -0.06159   0.01338

-------------------------------------------------------------------
                      TRANSIENT CD SPECTRUM                        
-------------------------------------------------------------------
State   Energy Wavelength       R         MX        MY        MZ   
        (cm-1)   (nm)       (1e40*sgs)   (au)      (au)      (au)  
-------------------------------------------------------------------
  17  100856.1     99.2     -9.54997  -0.00273  -0.12901   0.00080
  18  102578.8     97.5     -2.09972   0.04937  -0.00591   0.00050
  19  102804.7     97.3    104.00712  -0.11300  -0.01287   0.02386
  20  105358.3     94.9     67.63393  -0.07861  -0.02587   0.09930

Transitions starting from IROOT 17:

-----------------------------------------------------------------------------
    TRANSIENT ABSORPTION SPECTRUM VIA TRANSITION ELECTRIC DIPOLE MOMENTS     
-----------------------------------------------------------------------------
State   Energy  Wavelength   fosc         T2         TX        TY        TZ  
        (cm-1)    (nm)                  (au**2)     (au)      (au)      (au) 
-----------------------------------------------------------------------------
  18  102578.8     97.5   0.357413943   0.25057  -0.36064   0.17998   0.29684
  19  102804.7     97.3   14.482626912  10.17577  -1.54551   1.17131   2.53283
  20  105358.3     94.9   5.086884226   3.66292  -1.47021   1.08328   0.57265

-----------------------------------------------------------------------------
    TRANSIENT ABSORPTION SPECTRUM VIA TRANSITION VELOCITY DIPOLE MOMENTS     
-----------------------------------------------------------------------------
State   Energy  Wavelength   fosc         P2         PX        PY        PZ  
        (cm-1)    (nm)                  (au**2)     (au)      (au)      (au) 
-----------------------------------------------------------------------------
  18  102578.8     97.5   0.357413943   0.25057   0.09234  -0.03343   0.02144
  19  102804.7     97.3   14.482626912  10.17577   0.11362  -0.11416  -0.21724
  20  105358.3     94.9   5.086884226   3.66292   0.08877  -0.06174   0.01336

-------------------------------------------------------------------
                      TRANSIENT CD SPECTRUM                        
-------------------------------------------------------------------
State   Energy Wavelength       R         MX        MY        MZ   
        (cm-1)   (nm)       (1e40*sgs)   (au)      (au)      (au)  
-------------------------------------------------------------------
  18  102578.8     97.5     -5.08687  -0.00629  -0.08387   0.00686
  19  102804.7     97.3    137.10271  -0.13149   0.00253   0.03341
  20  105358.3     94.9     68.57056  -0.07335  -0.02853   0.11964

Transitions starting from IROOT 18:

-----------------------------------------------------------------------------
    TRANSIENT ABSORPTION SPECTRUM VIA TRANSITION ELECTRIC DIPOLE MOMENTS     
-----------------------------------------------------------------------------
State   Energy  Wavelength   fosc         T2         TX        TY        TZ  
        (cm-1)    (nm)                  (au**2)     (au)      (au)      (au) 
-----------------------------------------------------------------------------
  19  102804.7     97.3   14.589359503  10.25076  -1.53915   1.18156   2.54670
  20  105358.3     94.9   5.078082476   3.65658  -1.47665   1.07221   0.57135

-----------------------------------------------------------------------------
    TRANSIENT ABSORPTION SPECTRUM VIA TRANSITION VELOCITY DIPOLE MOMENTS     
-----------------------------------------------------------------------------
State   Energy  Wavelength   fosc         P2         PX        PY        PZ  
        (cm-1)    (nm)                  (au**2)     (au)      (au)      (au) 
-----------------------------------------------------------------------------
  19  102804.7     97.3   14.589359503  10.25076   0.11422  -0.11330  -0.21730
  20  105358.3     94.9   5.078082476   3.65658   0.08697  -0.06410   0.01357

-------------------------------------------------------------------
                      TRANSIENT CD SPECTRUM                        
-------------------------------------------------------------------
State   Energy Wavelength       R         MX        MY        MZ   
        (cm-1)   (nm)       (1e40*sgs)   (au)      (au)      (au)  
-------------------------------------------------------------------
  19  102804.7     97.3    187.49134  -0.17024   0.03082   0.03897
  20  105358.3     94.9     78.26401  -0.09619  -0.01153   0.06358

Transitions starting from IROOT 19:

-----------------------------------------------------------------------------
    TRANSIENT ABSORPTION SPECTRUM VIA TRANSITION ELECTRIC DIPOLE MOMENTS     
-----------------------------------------------------------------------------
State   Energy  Wavelength   fosc         T2         TX        TY        TZ  
        (cm-1)    (nm)                  (au**2)     (au)      (au)      (au) 
-----------------------------------------------------------------------------
  20  105358.3     94.9   4.498046465   3.23892  -1.41284   1.01802   0.45437

-----------------------------------------------------------------------------
    TRANSIENT ABSORPTION SPECTRUM VIA TRANSITION VELOCITY DIPOLE MOMENTS     
-----------------------------------------------------------------------------
State   Energy  Wavelength   fosc         P2         PX        PY        PZ  
        (cm-1)    (nm)                  (au**2)     (au)      (au)      (au) 
-----------------------------------------------------------------------------
  20  105358.3     94.9   4.498046465   3.23892   0.08162  -0.06022   0.01414

-------------------------------------------------------------------
                      TRANSIENT CD SPECTRUM                        
-------------------------------------------------------------------
State   Energy Wavelength       R         MX        MY        MZ   
        (cm-1)   (nm)       (1e40*sgs)   (au)      (au)      (au)  
-------------------------------------------------------------------
  20  105358.3     94.9     69.73902   0.08474   0.24322   0.04413

Total run time:        3.844 sec

           *** ORCA-CIS/TD-DFT FINISHED WITHOUT ERROR ***

-----------------------
CIS/TD-DFT TOTAL ENERGY
-----------------------

    E(SCF)  =   -377.706117573 Eh
    DE(CIS) =      0.154318635 Eh (Root  1)
    ----------------------------- ---------
    E(tot)  =   -377.551798938 Eh


-------------------------   --------------------
FINAL SINGLE POINT ENERGY      -377.551798938233
-------------------------   --------------------


                            ***************************************
                            *     ORCA property calculations      *
                            ***************************************

                                    ---------------------
                                    Active property flags
                                    ---------------------
   (+) Dipole Moment


------------------------------------------------------------------------------
                       ORCA ELECTRIC PROPERTIES CALCULATION
------------------------------------------------------------------------------

Dipole Moment Calculation                       ... on
Quadrupole Moment Calculation                   ... off
Polarizability Calculation                      ... off
GBWName                                         ... 1.gbw
Electron density file                           ... 1.scfp
The origin for moment calculation is the CENTER OF MASS  = ( 3.529795, -1.796365  4.644729)

-------------
DIPOLE MOMENT
-------------
                                X             Y             Z
Electronic contribution:      3.05568      -2.16069       0.05972
Nuclear contribution   :     -3.55121       2.47657      -0.51369
                        -----------------------------------------
Total Dipole Moment    :     -0.49553       0.31588      -0.45396
                        -----------------------------------------
Magnitude (a.u.)       :      0.74257
Magnitude (Debye)      :      1.88746



--------------------
Rotational spectrum 
--------------------
 
Rotational constants in cm-1:     0.124213     0.040879     0.030932 
Rotational constants in MHz :  3723.813959  1225.510122   927.328298 

 Dipole components along the rotational axes: 
x,y,z [a.u.] :    -0.425625     0.608486    -0.000163 
x,y,z [Debye]:    -1.081852     1.546647    -0.000416 

 

Timings for individual modules:

Sum of individual times         ...        4.619 sec (=   0.077 min)
GTO integral calculation        ...        0.102 sec (=   0.002 min)   2.2 %
SCF iterations                  ...        0.659 sec (=   0.011 min)  14.3 %
CIS module                      ...        3.858 sec (=   0.064 min)  83.5 %
                             ****ORCA TERMINATED NORMALLY****
TOTAL RUN TIME: 0 days 0 hours 0 minutes 4 seconds 694 msec
