[Molden Format]
[Title]
 Molden file created by orca_2mkl for BaseName=orca

[Atoms] AU
O    1   8         -5.1566468797         3.8560428681         7.8848633965 
C    2   6         -3.4254876657         5.6287193652         6.9922512572 
C    3   6         -1.9642002409         5.1745803807         4.9689592801 
N    4   7         -2.1459541004         2.9114254655         3.7104016749 
C    5   6         -3.8327236476         1.1204564193         4.5387253312 
C    6   6         -5.2904961818         1.5821921029         6.5628109932 
H    7   1         -3.4321395017         7.3330255709         8.1097219092 
H    8   1         -0.6038430888         6.5171174153         4.2347061908 
H    9   1         -3.8972766923        -0.6286362957         3.4763779905 
H   10   1         -6.6680309444         0.3121638601         7.3646595864 
H   11   1         -1.0446972986         2.5658701446         2.1838242121 
[GTO]
  1 0
s   3 1.0 
       13.3610161452        -0.2985654859
        0.8113443126         0.3631509651
        0.3114868582         0.1361527594
p   3 1.0 
        4.7576306148         1.6264876173
        1.2210305931         1.0358474598
        0.4145575068         0.2002393937

  2 0
s   3 1.0 
        6.8168449720        -0.1802384934
        0.4139511799         0.2192275595
        0.1589218664         0.0821929171
p   3 1.0 
        2.4273625586         0.7013433317
        0.6229747924         0.4466586163
        0.2115089320         0.0863434569

  3 0
s   3 1.0 
        6.8168449720        -0.1802384934
        0.4139511799         0.2192275595
        0.1589218664         0.0821929171
p   3 1.0 
        2.4273625586         0.7013433317
        0.6229747924         0.4466586163
        0.2115089320         0.0863434569

  4 0
s   3 1.0 
        9.8162567597        -0.2369296526
        0.5960896990         0.2881821110
        0.2288474876         0.1080453954
p   3 1.0 
        3.4954020843         1.1063277023
        0.8970837010         0.7045775989
        0.3045728621         0.1362017061

  5 0
s   3 1.0 
        6.8168449720        -0.1802384934
        0.4139511799         0.2192275595
        0.1589218664         0.0821929171
p   3 1.0 
        2.4273625586         0.7013433317
        0.6229747924         0.4466586163
        0.2115089320         0.0863434569

  6 0
s   3 1.0 
        6.8168449720        -0.1802384934
        0.4139511799         0.2192275595
        0.1589218664         0.0821929171
p   3 1.0 
        2.4273625586         0.7013433317
        0.6229747924         0.4466586163
        0.2115089320         0.0863434569

  7 0
s   3 1.0 
        3.2077163232         0.2636419974
        0.5843012458         0.2549815803
        0.1581359918         0.0794659232

  8 0
s   3 1.0 
        3.2077163232         0.2636419974
        0.5843012458         0.2549815803
        0.1581359918         0.0794659232

  9 0
s   3 1.0 
        3.2077163232         0.2636419974
        0.5843012458         0.2549815803
        0.1581359918         0.0794659232

 10 0
s   3 1.0 
        3.2077163232         0.2636419974
        0.5843012458         0.2549815803
        0.1581359918         0.0794659232

 11 0
s   3 1.0 
        3.2077163232         0.2636419974
        0.5843012458         0.2549815803
        0.1581359918         0.0794659232

[5D]
[7F]
[9G]
[MO]
 Sym=     1a
 Ene= -1.77009922295820E+00
 Spin= Alpha
 Occup= 2.000000
  1      -0.505555094330
  2      -0.096417068036
  3       0.030249663173
  4       0.133681268394
  5      -0.325871180078
  6       0.061329231658
  7       0.165749445270
  8       0.035400494939
  9      -0.303147935372
 10       0.087870753329
 11       0.128251047121
 12      -0.020390929272
 13      -0.392711061447
 14       0.068756023052
 15      -0.021570606152
 16      -0.095344882308
 17      -0.303148633394
 18      -0.037617107246
 19      -0.144018640198
 20      -0.049284649644
 21      -0.325870662916
 22      -0.087650872034
 23      -0.157490127586
 24       0.001098870366
 25      -0.078220227363
 26      -0.072667209992
 27      -0.072668008533
 28      -0.078219164347
 29      -0.121253155371
 Sym=     1a
 Ene= -1.48737501417751E+00
 Spin= Alpha
 Occup= 2.000000
  1      -0.542670100791
  2      -0.053524634355
  3       0.016790471131
  4       0.074208466318
  5      -0.146097787410
  6       0.146876577558
  7       0.082499467119
  8      -0.119937357892
  9       0.242795346218
 10       0.029789679655
 11      -0.132904516197
 12      -0.121743983955
 13       0.547317868877
 14      -0.011763377705
 15       0.003687094978
 16       0.016331881170
 17       0.242801098755
 18       0.129293505776
 19       0.082991242216
 20      -0.098830886366
 21      -0.146088671836
 22       0.043327155852
 23      -0.142174474571
 24      -0.143781858288
 25      -0.062471307492
 26       0.100818429005
 27       0.100821546323
 28      -0.062468767387
 29       0.236399444824
 Sym=     1a
 Ene= -1.21664736816014E+00
 Spin= Alpha
 Occup= 2.000000
  1       0.000002063783
  2      -0.084806159656
  3      -0.184004335038
  4      -0.019527516165
  5      -0.401889612026
  6      -0.070671605580
  7      -0.025063174579
  8       0.067235803219
  9      -0.434321531935
 10       0.021466099989
 11      -0.054007508060
 12      -0.060537215945
 13      -0.000007766482
 14      -0.107484180737
 15      -0.233204469431
 16      -0.024746379723
 17       0.434321945718
 18      -0.059541139758
 19      -0.028593897984
 20       0.051776941818
 21       0.401896091555
 22       0.032631332325
 23      -0.057474180142
 24      -0.075996376489
 25      -0.185973295938
 26      -0.209962052242
 27       0.209961878872
 28       0.185973247464
 29      -0.000005023158
 Sym=     1a
 Ene= -1.05025167722879E+00
 Spin= Alpha
 Occup= 2.000000
  1      -0.326625497273
  2       0.016172842216
  3      -0.005069238828
  4      -0.022421626362
  5       0.272546643544
  6       0.199714914561
  7       0.113039886312
  8      -0.162523153919
  9       0.255878595253
 10      -0.075998279551
 11       0.179398784928
 12       0.206641218254
 13      -0.330776911982
 14      -0.116173091290
 15       0.036450999306
 16       0.161049164899
 17       0.255876754199
 18      -0.201267738659
 19      -0.092402996873
 20       0.177794247052
 21       0.272536563277
 22       0.058219243571
 23      -0.193964964720
 24      -0.195105064198
 25       0.143811050306
 26       0.123873133121
 27       0.123871522480
 28       0.143800902813
 29      -0.267064246463
 Sym=     1a
 Ene= -9.99471464406670E-01
 Spin= Alpha
 Occup= 2.000000
  1       0.000002180476
  2       0.193749724892
  3       0.420382934928
  4       0.044614860355
  5       0.298160858375
  6      -0.151379222104
  7       0.001491814252
  8       0.179942891255
  9      -0.258616957127
 10      -0.104134425265
 11       0.053718074886
 12       0.158090782908
 13       0.000003412911
 14      -0.150432509552
 15      -0.326400217496
 16      -0.034642525989
 17       0.258612793357
 18       0.121087310301
 19      -0.016948024501
 20      -0.154195162028
 21      -0.298165201227
 22       0.114327343434
 23      -0.081877116551
 24      -0.188469578664
 25       0.207070365410
 26      -0.184415593137
 27       0.184418646005
 28      -0.207069730426
 29       0.000004450980
 Sym=     1a
 Ene= -8.90751659479984E-01
 Spin= Alpha
 Occup= 2.000000
  1      -0.128230555292
  2       0.123085310577
  3      -0.038612876582
  4      -0.170663449893
  5      -0.116213006128
  6      -0.002254558234
  7      -0.245931993196
  8      -0.157452201111
  9      -0.030352766852
 10      -0.191033443964
 11      -0.253507959078
 12       0.060796313616
 13      -0.046903085472
 14      -0.267022270229
 15       0.083778164020
 16       0.370197860827
 17      -0.030351787614
 18       0.061399797861
 19       0.294187076770
 20       0.118914812253
 21      -0.116218904361
 22       0.196375456382
 23       0.185028637206
 24      -0.111720278298
 25      -0.237755770711
 26      -0.217601600725
 27      -0.217600763951
 28      -0.237759611046
 29      -0.322705763176
 Sym=     1a
 Ene= -7.80310002581751E-01
 Spin= Alpha
 Occup= 2.000000
  1       0.000000392107
  2      -0.197501460515
  3      -0.428521747071
  4      -0.045477311512
  5       0.067816744592
  6       0.256140982442
  7       0.179650537933
  8      -0.185862719476
  9      -0.005107413583
 10      -0.087761615164
 11       0.250740081589
 12       0.267006661416
 13       0.000001222243
 14      -0.189415861208
 15      -0.410976836422
 16      -0.043615289949
 17       0.005104918362
 18       0.267517292011
 19       0.139273659846
 20      -0.225618168189
 21      -0.067815662524
 22      -0.046741847548
 23       0.274682628319
 24       0.234078635277
 25       0.073014065566
 26       0.007505808987
 27      -0.007505818132
 28      -0.073009907702
 29       0.000001299720
 Sym=     1a
 Ene= -6.75770322463833E-01
 Spin= Alpha
 Occup= 2.000000
  1       0.235014010654
  2      -0.034154164367
  3       0.010718873431
  4       0.047335210821
  5      -0.230892766163
  6      -0.023693986999
  7      -0.183462358905
  8      -0.091443378717
  9       0.219615205670
 10       0.201846870650
 11       0.196274318767
 12      -0.110869447085
 13      -0.182904275724
 14      -0.048772884061
 15       0.015305311700
 16       0.067589438401
 17       0.219610416682
 18      -0.007214112816
 19      -0.257340374029
 20      -0.159016478812
 21      -0.230894255439
 22       0.130033597182
 23       0.150092044230
 24      -0.056037823825
 25      -0.284780526331
 26       0.352678654835
 27       0.352682375408
 28      -0.284770463911
 29      -0.135233494307
 Sym=     1a
 Ene= -6.11971743832848E-01
 Spin= Alpha
 Occup= 2.000000
  1       0.193130597236
  2      -0.294149462971
  3       0.092293910004
  4       0.407715184409
  5      -0.058530984079
  6      -0.003253548464
  7       0.216927274039
  8       0.144990854805
  9       0.034751985317
 10       0.067090360545
 11      -0.154753512146
 12      -0.180177219299
 13       0.056706295589
 14      -0.276237803879
 15       0.086690931699
 16       0.382828447652
 17       0.034756625595
 18       0.174766988553
 19       0.078898724391
 20      -0.155367162903
 21      -0.058529205053
 22      -0.177103257332
 23      -0.160301421953
 24       0.104942657726
 25       0.185482391795
 26       0.011255573409
 27       0.011245298131
 28       0.185460965427
 29      -0.362663142932
 Sym=     1a
 Ene= -5.80732999073826E-01
 Spin= Alpha
 Occup= 2.000000
  1      -0.000035736356
  2      -0.481203697535
  3       0.264994042399
  4      -0.407140586125
  5       0.000019292744
  6      -0.232475111484
  7       0.127984612395
  8      -0.196657693372
  9      -0.000012228736
 10      -0.202769381371
 11       0.111673859378
 12      -0.171460220014
 13       0.000017235649
 14      -0.270976126895
 15       0.149229542414
 16      -0.229327419840
 17      -0.000015225286
 18      -0.202783678861
 19       0.111627645005
 20      -0.171476604501
 21       0.000015885247
 22      -0.232463224070
 23       0.128028820034
 24      -0.196642667552
 25      -0.000027268321
 26      -0.000012222948
 27      -0.000001603864
 28      -0.000013847067
 29       0.000055315545
 Sym=     1a
 Ene= -5.75774063699941E-01
 Spin= Alpha
 Occup= 2.000000
  1      -0.000001778370
  2       0.037059146984
  3       0.080390287450
  4       0.008545710873
  5       0.078094839948
  6       0.088632511178
  7      -0.247917090027
  8      -0.266189572027
  9       0.066131113732
 10      -0.290605330982
 11      -0.179325089651
 12       0.226824955072
 13       0.000004130509
 14       0.056723875153
 15       0.123079645576
 16       0.013078251732
 17      -0.066132432170
 18       0.072779998593
 19      -0.293327706086
 20      -0.276985324581
 21      -0.078091961033
 22      -0.265899118567
 23      -0.136701229452
 24       0.225392911536
 25      -0.264700288979
 26      -0.313036967673
 27       0.313031445340
 28       0.264722925896
 29      -0.000010938793
 Sym=     1a
 Ene= -5.39574769258146E-01
 Spin= Alpha
 Occup= 2.000000
  1       0.000000395049
  2       0.142012747721
  3       0.308133025568
  4       0.032709172625
  5      -0.075445579003
  6      -0.082296410619
  7      -0.285961137954
  8      -0.088875592514
  9       0.076602370718
 10       0.113470614327
 11       0.293091851276
 12       0.056672480443
 13       0.000002563672
 14      -0.153393028688
 15      -0.332812244008
 16      -0.035314025656
 17      -0.076602612080
 18       0.151243151864
 19       0.281249104750
 20       0.004277927657
 21       0.075446910301
 22      -0.168796521931
 23      -0.258831863296
 24       0.031065474906
 25      -0.303199739280
 26       0.268707653851
 27      -0.268710943986
 28       0.303209144394
 29      -0.000003599908
 Sym=     1a
 Ene= -4.90309566135438E-01
 Spin= Alpha
 Occup= 2.000000
  1      -0.000078881276
  2       0.421116736807
  3      -0.231864729896
  4       0.355953988497
  5       0.000014615311
  6       0.022878581405
  7      -0.012632905931
  8       0.019444492632
  9      -0.000012971630
 10      -0.201073842951
 11       0.110755408097
 12      -0.170147021010
 13       0.000035674857
 14      -0.485979755313
 15       0.267610134008
 16      -0.411078406422
 17      -0.000012711069
 18      -0.201096257558
 19       0.110716042184
 20      -0.170154062665
 21       0.000014726788
 22       0.022890672623
 23      -0.012588901851
 24       0.019443248327
 25       0.000028026644
 26       0.000037090708
 27       0.000037012634
 28       0.000028070746
 29      -0.000034679255
 Sym=     1a
 Ene= -4.73513124894777E-01
 Spin= Alpha
 Occup= 2.000000
  1      -0.270786239166
  2       0.373895079337
  3      -0.117285361216
  4      -0.518632579863
  5       0.034306461213
  6      -0.195106201411
  7       0.012885278055
  8       0.239055902116
  9      -0.024084393186
 10       0.168540623099
 11      -0.026299453141
 12      -0.216255293274
 13      -0.000996044439
 14      -0.102621396175
 15       0.032168199293
 16       0.142547882539
 17      -0.024082107763
 18       0.147121929094
 19      -0.072759788837
 20      -0.221180407697
 21       0.034309524683
 22      -0.156180348247
 23       0.097335162661
 24       0.248012534429
 25       0.155538782506
 26       0.161133317172
 27       0.161126186453
 28       0.155536637238
 29      -0.161092490177
 Sym=     1a
 Ene= -3.64385499564469E-01
 Spin= Alpha
 Occup= 2.000000
  1       0.000000277844
  2       0.000002364765
  3       0.000001857264
  4       0.000001529046
  5      -0.000001385773
  6       0.348349907648
  7      -0.191829680970
  8       0.294643014523
  9       0.000003932104
 10       0.355434309137
 11      -0.195735317721
 12       0.300640976578
 13      -0.000000129771
 14       0.000011319694
 15      -0.000000441449
 16       0.000007999150
 17      -0.000003194842
 18      -0.355447515179
 19       0.195715898894
 20      -0.300645235237
 21      -0.000000055938
 22      -0.348364789035
 23       0.191820258118
 24      -0.294652516166
 25      -0.000000856781
 26      -0.000004700741
 27       0.000004471290
 28       0.000001106647
 29       0.000000179819
 Sym=     1a
 Ene= -2.76016582045127E-01
 Spin= Alpha
 Occup= 2.000000
  1      -0.000002643130
  2       0.264497392935
  3      -0.145647479565
  4       0.223722086712
  5       0.000002014082
  6      -0.306054423498
  7       0.168535647196
  8      -0.258865420506
  9       0.000002537185
 10      -0.216745868731
 11       0.119351654394
 12      -0.183338126883
 13      -0.000030199559
 14       0.379632657828
 15      -0.209050777079
 16       0.321141112880
 17       0.000003184523
 18      -0.216734074540
 19       0.119348246044
 20      -0.183328246102
 21       0.000000793860
 22      -0.306048741238
 23       0.168522090438
 24      -0.258858642347
 25       0.000001038864
 26       0.000001456914
 27       0.000001260969
 28       0.000001460863
 29       0.000021724643
 Sym=     1a
 Ene= 3.40684114772260E-02
 Spin= Alpha
 Occup= 0.000000
  1       0.000000388611
  2      -0.000001988559
  3       0.000004230396
  4      -0.000002812650
  5      -0.000002839213
  6       0.355443279530
  7      -0.195735077556
  8       0.300643344295
  9      -0.000002340340
 10      -0.348357840715
 11       0.191834560322
 12      -0.294649880983
 13      -0.000000052717
 14       0.000002942078
 15      -0.000001818676
 16       0.000002481804
 17       0.000002438556
 18       0.348357132440
 19      -0.191814839430
 20       0.294645674048
 21       0.000000699175
 22      -0.355441156989
 23       0.195717508554
 24      -0.300638888037
 25       0.000001531981
 26       0.000002101041
 27      -0.000001952458
 28       0.000000068454
 29       0.000000142643
 Sym=     1a
 Ene= 6.34875679886223E-02
 Spin= Alpha
 Occup= 0.000000
  1      -0.000003177415
  2       0.128686291613
  3      -0.070862800981
  4       0.108851227128
  5       0.000010346531
  6      -0.315356111059
  7       0.173658258970
  8      -0.266737706676
  9      -0.000008774986
 10       0.345183986868
 11      -0.190078483852
 12       0.291969326087
 13       0.000027175796
 14      -0.203956255548
 15       0.112311941858
 16      -0.172532584669
 17      -0.000008554530
 18       0.345192754510
 19      -0.190082017573
 20       0.291977124178
 21       0.000008599410
 22      -0.315368282379
 23       0.173654433719
 24      -0.266746412848
 25      -0.000009125471
 26       0.000003651777
 27       0.000003667669
 28      -0.000007848757
 29      -0.000027391512
 Sym=     1a
 Ene= 1.10323990223958E-01
 Spin= Alpha
 Occup= 0.000000
  1       0.142253860185
  2       0.114690082654
  3      -0.035991707921
  4      -0.159015580965
  5      -0.364263385717
  6      -0.004392045316
  7       0.054510656978
  8       0.040659924219
  9       0.389009331091
 10      -0.034054322769
 11      -0.022113612974
 12       0.025884178910
 13      -0.263083945882
 14       0.047644204313
 15      -0.014940785812
 16      -0.066100791091
 17       0.389025691406
 18      -0.007646133946
 19       0.035192835214
 20       0.031969941471
 21      -0.364284482188
 22      -0.047175975581
 23      -0.038325623682
 24       0.030807249143
 25       0.243306698581
 26      -0.266451438046
 27      -0.266461094565
 28       0.243322321777
 29       0.146852783906
 Sym=     1a
 Ene= 1.28651579583490E-01
 Spin= Alpha
 Occup= 0.000000
  1      -0.000000205006
  2       0.079875274450
  3       0.173304184117
  4       0.018391494246
  5      -0.390813586517
  6      -0.051886147245
  7      -0.006872743575
  8       0.056863653996
  9       0.393463381314
 10      -0.023453943682
 11       0.066616403165
 12       0.071095664439
 13      -0.000012787400
 14      -0.081644034629
 15      -0.177147185815
 16      -0.018801922405
 17      -0.393436393267
 18       0.071181188077
 19       0.036926915008
 20      -0.060112594426
 21       0.390807775507
 22       0.033229688255
 23      -0.033580741014
 24      -0.061146672027
 25       0.257171363239
 26      -0.269705803346
 27       0.269684120589
 28      -0.257172164478
 29       0.000006703866
 Sym=     1a
 Ene= 1.65764675684760E-01
 Spin= Alpha
 Occup= 0.000000
  1       0.202505879808
  2       0.122923051135
  3      -0.038565917517
  4      -0.170429505684
  5      -0.287564000768
  6       0.141042762615
  7       0.017558919368
  8      -0.155322501945
  9      -0.213113143420
 10      -0.120209084445
 11       0.103527757602
 12       0.209513676022
 13       0.368908624491
 14       0.000999139159
 15      -0.000324855467
 16      -0.001334934037
 17      -0.213131700968
 18      -0.173209230224
 19      -0.011463831785
 20       0.197310314119
 21      -0.287550594643
 22       0.091270133113
 23      -0.090448778256
 24      -0.166790138114
 25       0.266258908455
 26       0.213842143860
 27       0.213855821262
 28       0.266252491606
 29      -0.246978825884
 Sym=     1a
 Ene= 2.02832720695460E-01
 Spin= Alpha
 Occup= 0.000000
  1      -0.036489116447
  2      -0.051589535914
  3       0.016182281601
  4       0.071529561554
  5      -0.048047364050
  6       0.003950117406
  7      -0.117964996028
  8      -0.081479400156
  9      -0.129951443882
 10      -0.127858127793
 11      -0.258634077437
 12      -0.017203424267
 13      -0.392394315269
 14      -0.132960668343
 15       0.041719808275
 16       0.184257973549
 17      -0.129971678129
 18       0.112729227546
 19       0.263388476847
 20       0.038205796316
 21      -0.048061773240
 22       0.097972047870
 23       0.086003534575
 24      -0.059849009252
 25       0.183583952130
 26       0.304439510036
 27       0.304464791367
 28       0.183612240159
 29       0.532789383670
 Sym=     1a
 Ene= 2.12203880227445E-01
 Spin= Alpha
 Occup= 0.000000
  1      -0.000003570989
  2      -0.077220697001
  3      -0.167543822963
  4      -0.017779533791
  5       0.248336177267
  6      -0.080753694868
  7       0.132896214242
  8       0.181999851579
  9       0.226168041663
 10       0.200390441658
 11       0.084755514555
 12      -0.181740710653
 13       0.000014523386
 14      -0.077075721302
 15      -0.167244825487
 16      -0.017755927319
 17      -0.226159674798
 18      -0.081508861428
 19       0.173175186059
 20       0.209108301130
 21      -0.248323055100
 22       0.167374254999
 23       0.055049383988
 24      -0.162048761575
 25      -0.324330252015
 26      -0.331732622903
 27       0.331708073418
 28       0.324315985363
 29      -0.000020734709
 Sym=     1a
 Ene= 2.83323976086186E-01
 Spin= Alpha
 Occup= 0.000000
  1       0.278783267099
  2       0.195357560842
  3      -0.061306930162
  4      -0.270871024727
  5       0.000046830618
  6       0.217360296196
  7       0.465815241111
  8       0.046290014517
  9      -0.025360394135
 10      -0.069157790915
 11      -0.111579854453
 12       0.009122448030
 13      -0.088129475553
 14      -0.067064552350
 15       0.021042881553
 16       0.092964163313
 17      -0.025361195585
 18       0.038171811890
 19       0.121316477376
 20       0.033851042907
 21       0.000033695490
 22      -0.212714290577
 23      -0.467303756127
 24      -0.052729851100
 25      -0.303062133541
 26       0.072333776166
 27       0.072348338041
 28      -0.303072102617
 29       0.150912051205
 Sym=     1a
 Ene= 3.28969462612753E-01
 Spin= Alpha
 Occup= 0.000000
  1      -0.073570225043
  2      -0.049514095235
  3       0.015539287916
  4       0.068652881416
  5      -0.026363505482
  6      -0.113209038254
  7       0.029742065201
  8       0.153208485186
  9       0.121029592230
 10      -0.239252648040
 11      -0.319593860941
 12       0.074781781697
 13      -0.097682639522
 14       0.306901531484
 15      -0.096297898327
 16      -0.425490065283
 17       0.121023659489
 18       0.078583734660
 19       0.369990432321
 20       0.147949530214
 21      -0.026360309290
 22      -0.108537588374
 23       0.039852629148
 24       0.154267609873
 25      -0.059330974004
 26       0.227778196541
 27       0.227765255763
 28      -0.059313577607
 29      -0.383900987255
 Sym=     1a
 Ene= 3.38093347311314E-01
 Spin= Alpha
 Occup= 0.000000
  1       0.000009718755
  2       0.054260130473
  3       0.117711729097
  4       0.012482895739
  5      -0.095424431772
  6      -0.031454461025
  7       0.340593872729
  8       0.258930578099
  9       0.114397850975
 10      -0.276246866537
 11      -0.217954071613
 12       0.184697948227
 13       0.000003340039
 14      -0.057336369201
 15      -0.124375748903
 16      -0.013184557644
 17      -0.114404583781
 18       0.030911896386
 19      -0.314350218723
 20      -0.241189089843
 21       0.095428044276
 22       0.297789601543
 23       0.237262994751
 24      -0.197611301946
 25      -0.259585473292
 26       0.224750327591
 27      -0.224763011248
 28       0.259567634343
 29       0.000013954701
 Sym=     1a
 Ene= 4.35902398042300E-01
 Spin= Alpha
 Occup= 0.000000
  1       0.123413021462
  2       0.066280057478
  3      -0.020726664512
  4      -0.091851134782
  5       0.091505688516
  6       0.261677738218
  7      -0.037446810139
  8      -0.333753576286
  9      -0.061672503800
 10       0.183905883283
 11      -0.196101366589
 12      -0.345098304545
 13      -0.146111588747
 14       0.183241261962
 15      -0.057432512202
 16      -0.254017599807
 17      -0.061638989347
 18       0.295411524741
 19       0.045808461552
 20      -0.319439388910
 21       0.091538793286
 22       0.225741861095
 23      -0.115364816359
 24      -0.341994072978
 25       0.117922570386
 26      -0.069678883632
 27      -0.069641963816
 28       0.117961873345
 29      -0.203970535798
 Sym=     1a
 Ene= 4.37770267430042E-01
 Spin= Alpha
 Occup= 0.000000
  1      -0.000012687855
  2       0.185275727016
  3       0.402010291375
  4       0.042672160922
  5      -0.096311075621
  6       0.235443087983
  7       0.317172126015
  8      -0.071865267654
  9      -0.122687947229
 10       0.105808140831
 11       0.293193964103
 12       0.065791521029
 13       0.000022391498
 14       0.166586868122
 15       0.361511190792
 16       0.038401876982
 17       0.122705995700
 18       0.156957820346
 19       0.277105129028
 20      -0.005173303878
 21       0.096281759572
 22       0.079405401107
 23       0.366129534253
 24       0.144475224294
 25      -0.126210469090
 26      -0.135007032157
 27       0.135027059043
 28       0.126168051773
 29       0.000030161737
 Sym=     1a
 Ene= 4.90512332914264E-01
 Spin= Alpha
 Occup= 0.000000
  1      -0.000002470054
  2      -0.136733925461
  3      -0.296669839971
  4      -0.031482568021
  5      -0.020282502544
  6      -0.280203604270
  7      -0.120199967449
  8       0.253020119762
  9      -0.010976062818
 10      -0.088075669578
 11       0.305094650183
 12       0.302761810353
 13       0.000000854036
 14       0.182016707368
 15       0.394920748891
 16       0.041910128662
 17       0.010974514643
 18       0.311523107822
 19       0.179718813674
 20      -0.251312079761
 21       0.020285299267
 22       0.112603069947
 23      -0.243440281417
 24      -0.291609595542
 25      -0.023946709878
 26      -0.011659629939
 27       0.011658544332
 28       0.023948987379
 29      -0.000000241914
