
    -----------------------------------------------------------------------
          Psi4: An Open-Source Ab Initio Electronic Structure Package
                               Psi4 1.4a2.dev1058 

                         Git: Rev {master} 670a850 


    D. G. A. Smith, L. A. Burns, A. C. Simmonett, R. M. Parrish,
    M. C. Schieber, R. Galvelis, P. Kraus, H. Kruse, R. Di Remigio,
    A. Alenaizan, A. M. James, S. Lehtola, J. P. Misiewicz, M. Scheurer,
    R. A. Shaw, J. B. Schriber, Y. Xie, Z. L. Glick, D. A. Sirianni,
    J. S. O'Brien, J. M. Waldrop, A. Kumar, E. G. Hohenstein,
    B. P. Pritchard, B. R. Brooks, H. F. Schaefer III, A. Yu. Sokolov,
    K. Patkowski, A. E. DePrince III, U. Bozkaya, R. A. King,
    F. A. Evangelista, J. M. Turney, T. D. Crawford, C. D. Sherrill,
    J. Chem. Phys. 152(18) 184108 (2020). https://doi.org/10.1063/5.0006002

                            Additional Code Authors
    E. T. Seidl, C. L. Janssen, E. F. Valeev, M. L. Leininger,
    J. F. Gonthier, R. M. Richard, H. R. McAlexander, M. Saitow, X. Wang,
    P. Verma, and M. H. Lechner

             Previous Authors, Complete List of Code Contributors,
                       and Citations for Specific Modules
    https://github.com/psi4/psi4/blob/master/codemeta.json
    https://github.com/psi4/psi4/graphs/contributors
    http://psicode.org/psi4manual/master/introduction.html#citing-psifour

    -----------------------------------------------------------------------


    Psi4 started on: Wednesday, 09 December 2020 05:49PM

    Process ID: 6902
    Host:       Incredible
    PSIDATADIR: /home/dima/.psi4_mkl/share/psi4
    Memory:     500.0 MiB
    Threads:    1
    
  ==> Input File <==

--------------------------------------------------------------------------
#! Single point energies of multiple excited states with EOM-CCSD

molecule ch4 {
 C    0.0  0.0  0.0
 H    0.0  0.0  1.0
 H    0.0  0.5 -1.0
 H   -0.5 -0.4  1.0
 H   0.5  0.4  -1.0
}

set {
  reference rhf
  basis cc-pVDZ
  num_roots 8
  opdm True
  tdm True
  roots_per_irrep [8]
  print 1
}

ci_energy, ci_wfn = energy('ci1', return_wfn=True)

basis = ci_wfn.basisset()
basis.print_detail_out()

overlap = ci_wfn.S()
overlap.print_out()

mo_alpha = ci_wfn.Ca()
mo_alpha.print_out()

mo_beta = ci_wfn.Cb()
mo_beta.print_out()

opdm_a = ci_wfn.get_opdm(1, 1, "A", True)
opdm_a.print_out()

opdm_b = ci_wfn.get_opdm(1, 1, "B", True)
opdm_b.print_out()

np_opdm_a = np.array(opdm_a)
eigvals, eigvecs = np.linalg.eigh(np_opdm_a)
eigvals = eigvals[::-1]
eigvecs = eigvecs[:, ::-1]
print('Occupation numbers (alpha):')
print(eigvals)

nat_orbs_a = np.dot(ci_wfn.Ca(), eigvecs)
print('Natural orbitals (alpha):')
print(nat_orbs_a)

np_opdm_b = np.array(opdm_b)
eigvals, eigvecs = np.linalg.eigh(np_opdm_b)
eigvals = eigvals[::-1]
eigvecs = eigvecs[:, ::-1]
print('Occupation numbers (beta):')
print(eigvals)

nat_orbs_b = np.dot(ci_wfn.Cb(), eigvecs)
print('Natural orbitals (beta):')
print(nat_orbs_b)

energy('eom-ccsd', return_wfn=True)
--------------------------------------------------------------------------

Scratch directory: /tmp/

*** tstart() called on Incredible
*** at Wed Dec  9 17:49:33 2020

   => Loading Basis Set <=

    Name: CC-PVDZ
    Role: ORBITAL
    Keyword: BASIS
    atoms 1   entry C          line   138 file /home/dima/.psi4_mkl/share/psi4/basis/cc-pvdz.gbs 
    atoms 2-5 entry H          line    22 file /home/dima/.psi4_mkl/share/psi4/basis/cc-pvdz.gbs 


         ---------------------------------------------------------
                                   SCF
               by Justin Turney, Rob Parrish, Andy Simmonett
                          and Daniel G. A. Smith
                              RHF Reference
                        1 Threads,    500 MiB Core
         ---------------------------------------------------------

  ==> Geometry <==

    Molecular point group: c1
    Full point group: C1

    Geometry (in Angstrom), charge = 0, multiplicity = 1:

       Center              X                  Y                   Z               Mass       
    ------------   -----------------  -----------------  -----------------  -----------------
         C            0.000000000000    -0.031433041117    -0.000000000000    12.000000000000
         H            0.000000000000    -0.031433041117     1.000000000000     1.007825032230
         H            0.000000000000     0.468566958883    -1.000000000000     1.007825032230
         H           -0.500000000000    -0.431433041117     1.000000000000     1.007825032230
         H            0.500000000000     0.368566958883    -1.000000000000     1.007825032230

  Running in c1 symmetry.

  Rotational constants: A =     48.60043  B =      3.48319  C =      3.37079 [cm^-1]
  Rotational constants: A = 1457004.09352  B = 104423.48537  C = 101053.59679 [MHz]
  Nuclear repulsion =   14.193684851469230

  Charge       = 0
  Multiplicity = 1
  Electrons    = 10
  Nalpha       = 5
  Nbeta        = 5

  ==> Algorithm <==

  SCF Algorithm Type is PK.
  DIIS enabled.
  MOM disabled.
  Fractional occupation disabled.
  Guess Type is SAD.
  Energy threshold   = 1.00e-08
  Density threshold  = 1.00e-08
  Integral threshold = 0.00e+00

  ==> Primary Basis <==

  Basis Set: CC-PVDZ
    Blend: CC-PVDZ
    Number of shells: 18
    Number of basis function: 34
    Number of Cartesian functions: 35
    Spherical Harmonics?: true
    Max angular momentum: 2

  ==> Integral Setup <==

  Using in-core PK algorithm.
   Calculation information:
      Number of atoms:                   5
      Number of AO shells:              18
      Number of primitives:             42
      Number of atomic orbitals:        35
      Number of basis functions:        34

      Integral cutoff                 1.00e-12
      Number of threads:                 1

  Performing in-core PK
  Using 354620 doubles for integral storage.
  We computed 14706 shell quartets total.
  Whereas there are 14706 unique shell quartets.

  ==> DiskJK: Disk-Based J/K Matrices <==

    J tasked:                  Yes
    K tasked:                  Yes
    wK tasked:                  No
    Memory [MiB]:              375
    Schwarz Cutoff:          1E-12

    OpenMP threads:              1

  Minimum eigenvalue in the overlap matrix is 1.2956197110E-02.
  Reciprocal condition number of the overlap matrix is 2.4830772266E-03.
    Using symmetric orthogonalization.

  ==> Pre-Iterations <==

  SCF Guess: Superposition of Atomic Densities via on-the-fly atomic UHF (no occupation information).

   -------------------------
    Irrep   Nso     Nmo    
   -------------------------
     A         34      34 
   -------------------------
    Total      34      34
   -------------------------

  ==> Iterations <==

                        Total Energy        Delta E     RMS |[F,P]|

   @RHF iter SAD:   -39.63665910153170   -3.96367e+01   0.00000e+00 
   @RHF iter   1:   -39.48152595578250    1.55133e-01   1.05001e-02 DIIS
   @RHF iter   2:   -39.54741934961294   -6.58934e-02   4.30736e-03 DIIS
   @RHF iter   3:   -39.55876277347931   -1.13434e-02   5.57187e-04 DIIS
   @RHF iter   4:   -39.55921728352816   -4.54510e-04   1.64851e-04 DIIS
   @RHF iter   5:   -39.55929275964736   -7.54761e-05   8.29307e-05 DIIS
   @RHF iter   6:   -39.55933181417424   -3.90545e-05   4.30360e-05 DIIS
   @RHF iter   7:   -39.55934370279846   -1.18886e-05   1.68144e-05 DIIS
   @RHF iter   8:   -39.55934551754463   -1.81475e-06   2.60194e-06 DIIS
   @RHF iter   9:   -39.55934553992260   -2.23780e-08   7.67805e-07 DIIS
   @RHF iter  10:   -39.55934554201579   -2.09319e-09   2.19822e-07 DIIS
   @RHF iter  11:   -39.55934554216179   -1.46002e-10   5.32390e-08 DIIS
   @RHF iter  12:   -39.55934554217012   -8.32756e-12   1.37987e-08 DIIS
   @RHF iter  13:   -39.55934554217067   -5.47118e-13   4.39810e-09 DIIS
  Energy and wave function converged.


  ==> Post-Iterations <==

    Orbital Energies [Eh]
    ---------------------

    Doubly Occupied:                                                      

       1A    -11.242959     2A     -1.071416     3A     -0.939683  
       4A     -0.343641     5A     -0.312759  

    Virtual:                                                              

       6A      0.088282     7A      0.200689     8A      0.249387  
       9A      0.292112    10A      0.321025    11A      0.688447  
      12A      0.734584    13A      0.739537    14A      0.883670  
      15A      0.899697    16A      0.995385    17A      1.042259  
      18A      1.207673    19A      1.349436    20A      1.390483  
      21A      1.431307    22A      1.746846    23A      1.982347  
      24A      2.025080    25A      2.064787    26A      2.120344  
      27A      2.241752    28A      2.333522    29A      2.382591  
      30A      2.801023    31A      2.978268    32A      3.147266  
      33A      4.366082    34A      5.674016  

    Final Occupation by Irrep:
              A 
    DOCC [     5 ]

  @RHF Final Energy:   -39.55934554217067

   => Energetics <=

    Nuclear Repulsion Energy =             14.1936848514692304
    One-Electron Energy =                 -79.6851440645928619
    Two-Electron Energy =                  25.9321136709529654
    Total Energy =                        -39.5593455421706679

Computation Completed


Properties will be evaluated at   0.000000,   0.000000,   0.000000 [a0]

Properties computed using the SCF density matrix

  Nuclear Dipole Moment: [e a0]
     X:     0.0000      Y:     0.3509      Z:     0.0000

  Electronic Dipole Moment: [e a0]
     X:    -0.0651      Y:     0.1225      Z:     0.0704

  Dipole Moment: [e a0]
     X:    -0.0651      Y:     0.4734      Z:     0.0704     Total:     0.4830

  Dipole Moment: [D]
     X:    -0.1654      Y:     1.2032      Z:     0.1788     Total:     1.2276


*** tstop() called on Incredible at Wed Dec  9 17:49:33 2020
Module time:
	user time   =       0.27 seconds =       0.00 minutes
	system time =       0.00 seconds =       0.00 minutes
	total time  =          0 seconds =       0.00 minutes
Total time:
	user time   =       0.27 seconds =       0.00 minutes
	system time =       0.00 seconds =       0.00 minutes
	total time  =          0 seconds =       0.00 minutes
 MINTS: Wrapper to libmints.
   by Justin Turney

   Calculation information:
      Number of threads:                 1
      Number of atoms:                   5
      Number of AO shells:              18
      Number of SO shells:              18
      Number of primitives:             42
      Number of atomic orbitals:        35
      Number of basis functions:        34

      Number of irreps:                  1
      Integral cutoff                 0.00e+00
      Number of functions per irrep: [  34 ]

 OEINTS: Overlap, kinetic, potential, dipole, and quadrupole integrals
         stored in file 35.

      Computing two-electron integrals...done
      Computed 174319 non-zero two-electron integrals.
        Stored in file 33.


         ---------------------------------------------------------
                          Configuration Interaction
                            (a 'D E T C I' module)

                 C. David Sherrill, Daniel G. A. Smith, and
                              Matt L. Leininger
         ---------------------------------------------------------


   ==> Parameters <==

    EX LEVEL       =        1      H0 BLOCKSIZE  =     1000
    VAL EX LEVEL   =        0      H0 GUESS SIZE =     1000
    H0COUPLINGSIZE =        0      H0 COUPLING   =       NO
    MAXITER        =       24      NUM PRINT     =       20
    NUM ROOTS      =        8      ICORE         =        1
    PRINT LVL      =        1      FCI           =       NO
    R CONV         = 1.00e-04      MIXED         =      YES
    E CONV         = 1.00e-06      MIXED4        =      YES
    R4S            =       NO      REPL OTF      =       NO
    DIAG METHOD    =      SEM      FOLLOW ROOT   =        0
    PRECONDITIONER = DAVIDSON      UPDATE        = DAVIDSON
    S              =   0.0000      Ms0           =      YES
    GUESS VECTOR   =  H0BLOCK      OPENTYPE      =     NONE
    COLLAPSE SIZE  =        1      HD AVG        = EVANGELISTI
    MAX NUM VECS   =      200      REF SYM       =     AUTO
    IOPEN        =       NO

    EX ALLOW       =  1 
    STATE AVERAGE  =  0(1.00) 

   ==> CI Orbital and Space information <==

    RAS1 LVL      =        4      A RAS3 MAX    =        1
    RAS1 MIN      =        9      B RAS3 MAX    =        1
    A RAS1 LVL    =        4      RAS4 LVL      =       34
    A RAS1 MIN    =        4      A RAS4 MAX    =        0
    A RAS1 MAX    =        5      B RAS4 MAX    =        0
    B RAS1 LVL    =        4      RAS4 MAX      =        0
    B RAS1 MIN    =        4      A RAS34 MAX   =        1
    B RAS1 MAX    =        5      B RAS34 MAX   =        1
    RAS3 LVL      =        5      RAS34 MAX     =        1
    RAS3 MAX      =        1
   ------------------------------------
               Space    Total     A
   ------------------------------------
                 Nso       34    34
                 Nmo       34    34
               Ndocc        5     5
               Nsocc        0     0
   ------------------------------------
              CI Spaces
   ------------------------------------
        Dropped DOCC        0     0
                RAS1        5     5
                RAS2        0     0
                RAS3       29    29
                RAS4        0     0
      Active (total)       34    34
        Dropped UOCC        0     0
   ------------------------------------

   ==> Setting up CI strings <==

    There are 146 alpha and 146 beta strings
    The CI space requires 291 (2.91E+02) determinants and 3 blocks

   ==> Transforming CI integrals <==

	Presorting SO-basis two-electron integrals.
	Sorting File: SO Ints (nn|nn) nbuckets = 1
	Constructing frozen core operators
	Starting first half-transformation.
	Sorting half-transformed integrals.
	First half integral transformation complete.
	Starting second half-transformation.
	Two-electron integral transformation complete.

   ==> Starting CI iterations <==

    H0 Block Eigenvalue = -39.56502565

    Simultaneous Expansion Method (Block Davidson Method)
    Using 8 initial trial vectors

(sem_iter): H0block_->H0b_diag[1][0] - H0block_->H0b_diag[2][0] = 0.681056 - -0.681056 = 1.362111 > 1.0E-8
(sem_iter): H0block_->H0b_diag[1][2] - H0block_->H0b_diag[2][2] = -0.001773 - 0.001773 = -0.003545 > 1.0E-8
(sem_iter): H0block_->H0b_diag[1][5] - H0block_->H0b_diag[2][5] = 0.060298 - -0.060298 = 0.120595 > 1.0E-8
(sem_iter): H0block_->H0b_diag[1][7] - H0block_->H0b_diag[2][7] = 0.011139 - -0.011139 = 0.022279 > 1.0E-8
(sem_iter): H0block_->H0b_diag[1][8] - H0block_->H0b_diag[2][8] = -0.012811 - 0.012811 = -0.025622 > 1.0E-8
(sem_iter): H0block_->H0b_diag[1][10] - H0block_->H0b_diag[2][10] = -0.018144 - 0.018144 = -0.036289 > 1.0E-8
(sem_iter): H0block_->H0b_diag[1][12] - H0block_->H0b_diag[2][12] = -0.105847 - 0.105847 = -0.211694 > 1.0E-8
(sem_iter): H0block_->H0b_diag[1][14] - H0block_->H0b_diag[2][14] = -0.115162 - 0.115162 = -0.230325 > 1.0E-8
(sem_iter): H0block_->H0b_diag[1][15] - H0block_->H0b_diag[2][15] = 0.027465 - -0.027465 = 0.054929 > 1.0E-8
     Iter   Root       Total Energy       Delta E      C RMS

   @CI  0:     0    -39.559345542171   -5.3753E+01   4.9634E-12  
   @CI  0:     1    -39.478953349354   -5.3673E+01   7.6595E-11  
   @CI  0:     2    -39.446204175557   -5.3640E+01   3.0023E-11  
   @CI  0:     3    -39.315476740171   -5.3509E+01   1.8140E-10  
   @CI  0:     4    -39.284602546814   -5.3478E+01   2.2902E-10  
   @CI  0:     5    -39.263364650283   -5.3457E+01   1.3915E-10  
   @CI  0:     6    -39.228019432198   -5.3422E+01   1.1074E-09  
   @CI  0:     7    -39.206768987830   -5.3400E+01   2.2065E-10  

    Warning: Norm of correction (root 0) is < 1.0E-13
    Warning: Norm of correction (root 1) is < 1.0E-13
    Warning: Norm of correction (root 2) is < 1.0E-13
    Warning: Norm of correction (root 3) is < 1.0E-13
    Warning: Norm of correction (root 4) is < 1.0E-13
    Warning: Norm of correction (root 5) is < 1.0E-13
    Warning: Norm of correction (root 6) is < 1.0E-13
    Warning: Norm of correction (root 7) is < 1.0E-13
   @CI  1:     0    -39.559345542171   -7.1054E-15   1.3645E-10 c
   @CI  1:     1    -39.478953349354   2.1316E-14   2.7438E-09 c
   @CI  1:     2    -39.446204175557   4.9738E-14   9.7138E-10 c
   @CI  1:     3    -39.315476740171   2.8422E-14   7.0342E-10 c
   @CI  1:     4    -39.284602546814   -3.5527E-14   1.9298E-09 c
   @CI  1:     5    -39.263364650283   1.4211E-14   4.0394E-09 c
   @CI  1:     6    -39.228019432198   2.1316E-14   1.1956E-08 c
   @CI  1:     7    -39.206768987830   4.9738E-14   3.7214E-08 c


   ==> Energetics <==

    SCF energy =          -39.559345542170668
    Total CI energy =     -39.559345542171066

   ==> CI root 0 information <==

    CI Root 0 energy =   -39.559345542171066

   The 20 most important determinants:

    *   1   -1.000000  (    0,    0)  1AX 2AX 3AX 4AX 5AX 
    *   2    0.000000  (    2,    0)  1AX 2AX 3AX 4AB 5AX 6AA 
    *   3    0.000000  (    0,    2)  1AX 2AX 3AX 4AA 5AX 6AB 
    *   4    0.000000  (    0,   22)  1AX 2AX 3AX 4AA 5AX 10AB 
    *   5    0.000000  (   22,    0)  1AX 2AX 3AX 4AB 5AX 10AA 
    *   6    0.000000  (    0,   17)  1AX 2AX 3AX 4AA 5AX 9AB 
    *   7    0.000000  (   17,    0)  1AX 2AX 3AX 4AB 5AX 9AA 
    *   8   -0.000000  (    0,    7)  1AX 2AX 3AX 4AA 5AX 7AB 
    *   9   -0.000000  (    7,    0)  1AX 2AX 3AX 4AB 5AX 7AA 
    *  10   -0.000000  (    0,   52)  1AX 2AX 3AX 4AA 5AX 16AB 
    *  11   -0.000000  (   52,    0)  1AX 2AX 3AX 4AB 5AX 16AA 
    *  12   -0.000000  (   37,    0)  1AX 2AX 3AX 4AB 5AX 13AA 
    *  13   -0.000000  (    0,   37)  1AX 2AX 3AX 4AA 5AX 13AB 
    *  14   -0.000000  (   71,    0)  1AX 2AX 3AX 4AX 5AB 20AA 
    *  15   -0.000000  (    0,   71)  1AX 2AX 3AX 4AX 5AA 20AB 
    *  16    0.000000  (   16,    0)  1AX 2AX 3AX 4AX 5AB 9AA 
    *  17    0.000000  (    0,   16)  1AX 2AX 3AX 4AX 5AA 9AB 
    *  18   -0.000000  (    6,    0)  1AX 2AX 3AX 4AX 5AB 7AA 
    *  19   -0.000000  (    0,    6)  1AX 2AX 3AX 4AX 5AA 7AB 
    *  20   -0.000000  (   67,    0)  1AX 2AX 3AX 4AB 5AX 19AA 


   ==> CI root 1 information <==

    CI Root 1 energy =   -39.478953349354263

   The 20 most important determinants:

    *   1    0.694302  (    1,    0)  1AX 2AX 3AX 4AX 5AB 6AA 
    *   2    0.694302  (    0,    1)  1AX 2AX 3AX 4AX 5AA 6AB 
    *   3    0.072803  (    0,   21)  1AX 2AX 3AX 4AX 5AA 10AB 
    *   4    0.072803  (   21,    0)  1AX 2AX 3AX 4AX 5AB 10AA 
    *   5    0.059574  (   16,    0)  1AX 2AX 3AX 4AX 5AB 9AA 
    *   6    0.059574  (    0,   16)  1AX 2AX 3AX 4AX 5AA 9AB 
    *   7   -0.045528  (    0,    6)  1AX 2AX 3AX 4AX 5AA 7AB 
    *   8   -0.045528  (    6,    0)  1AX 2AX 3AX 4AX 5AB 7AA 
    *   9   -0.036094  (    0,   51)  1AX 2AX 3AX 4AX 5AA 16AB 
    *  10   -0.036094  (   51,    0)  1AX 2AX 3AX 4AX 5AB 16AA 
    *  11   -0.026019  (   46,    0)  1AX 2AX 3AX 4AX 5AB 15AA 
    *  12   -0.026019  (    0,   46)  1AX 2AX 3AX 4AX 5AA 15AB 
    *  13   -0.024531  (    0,   72)  1AX 2AX 3AX 4AA 5AX 20AB 
    *  14   -0.024531  (   72,    0)  1AX 2AX 3AX 4AB 5AX 20AA 
    *  15    0.023031  (    0,   66)  1AX 2AX 3AX 4AX 5AA 19AB 
    *  16    0.023031  (   66,    0)  1AX 2AX 3AX 4AX 5AB 19AA 
    *  17   -0.022536  (   41,    0)  1AX 2AX 3AX 4AX 5AB 14AA 
    *  18   -0.022536  (    0,   41)  1AX 2AX 3AX 4AX 5AA 14AB 
    *  19   -0.021632  (    0,   36)  1AX 2AX 3AX 4AX 5AA 13AB 
    *  20   -0.021632  (   36,    0)  1AX 2AX 3AX 4AX 5AB 13AA 


   ==> CI root 2 information <==

    CI Root 2 energy =   -39.446204175556645

   The 20 most important determinants:

    *   1    0.691785  (    2,    0)  1AX 2AX 3AX 4AB 5AX 6AA 
    *   2    0.691785  (    0,    2)  1AX 2AX 3AX 4AA 5AX 6AB 
    *   3    0.096274  (    0,   22)  1AX 2AX 3AX 4AA 5AX 10AB 
    *   4    0.096274  (   22,    0)  1AX 2AX 3AX 4AB 5AX 10AA 
    *   5    0.058040  (   17,    0)  1AX 2AX 3AX 4AB 5AX 9AA 
    *   6    0.058040  (    0,   17)  1AX 2AX 3AX 4AA 5AX 9AB 
    *   7   -0.038789  (   52,    0)  1AX 2AX 3AX 4AB 5AX 16AA 
    *   8   -0.038789  (    0,   52)  1AX 2AX 3AX 4AA 5AX 16AB 
    *   9    0.029710  (    0,   12)  1AX 2AX 3AX 4AA 5AX 8AB 
    *  10    0.029710  (   12,    0)  1AX 2AX 3AX 4AB 5AX 8AA 
    *  11   -0.026624  (    6,    0)  1AX 2AX 3AX 4AX 5AB 7AA 
    *  12   -0.026624  (    0,    6)  1AX 2AX 3AX 4AX 5AA 7AB 
    *  13   -0.024785  (    0,   71)  1AX 2AX 3AX 4AX 5AA 20AB 
    *  14   -0.024785  (   71,    0)  1AX 2AX 3AX 4AX 5AB 20AA 
    *  15   -0.021790  (    0,    7)  1AX 2AX 3AX 4AA 5AX 7AB 
    *  16   -0.021790  (    7,    0)  1AX 2AX 3AX 4AB 5AX 7AA 
    *  17   -0.020803  (    0,   67)  1AX 2AX 3AX 4AA 5AX 19AB 
    *  18   -0.020803  (   67,    0)  1AX 2AX 3AX 4AB 5AX 19AA 
    *  19   -0.018041  (   37,    0)  1AX 2AX 3AX 4AB 5AX 13AA 
    *  20   -0.018041  (    0,   37)  1AX 2AX 3AX 4AA 5AX 13AB 


   ==> CI root 3 information <==

    CI Root 3 energy =   -39.315476740170659

   The 20 most important determinants:

    *   1    0.687069  (    6,    0)  1AX 2AX 3AX 4AX 5AB 7AA 
    *   2    0.687069  (    0,    6)  1AX 2AX 3AX 4AX 5AA 7AB 
    *   3    0.104469  (   31,    0)  1AX 2AX 3AX 4AX 5AB 12AA 
    *   4    0.104469  (    0,   31)  1AX 2AX 3AX 4AX 5AA 12AB 
    *   5    0.055549  (   36,    0)  1AX 2AX 3AX 4AX 5AB 13AA 
    *   6    0.055549  (    0,   36)  1AX 2AX 3AX 4AX 5AA 13AB 
    *   7    0.052198  (    1,    0)  1AX 2AX 3AX 4AX 5AB 6AA 
    *   8    0.052198  (    0,    1)  1AX 2AX 3AX 4AX 5AA 6AB 
    *   9   -0.049996  (    0,   21)  1AX 2AX 3AX 4AX 5AA 10AB 
    *  10   -0.049996  (   21,    0)  1AX 2AX 3AX 4AX 5AB 10AA 
    *  11   -0.040890  (    0,    7)  1AX 2AX 3AX 4AA 5AX 7AB 
    *  12   -0.040890  (    7,    0)  1AX 2AX 3AX 4AB 5AX 7AA 
    *  13   -0.038692  (   41,    0)  1AX 2AX 3AX 4AX 5AB 14AA 
    *  14   -0.038692  (    0,   41)  1AX 2AX 3AX 4AX 5AA 14AB 
    *  15    0.038157  (    0,   46)  1AX 2AX 3AX 4AX 5AA 15AB 
    *  16    0.038157  (   46,    0)  1AX 2AX 3AX 4AX 5AB 15AA 
    *  17   -0.035864  (   26,    0)  1AX 2AX 3AX 4AX 5AB 11AA 
    *  18   -0.035864  (    0,   26)  1AX 2AX 3AX 4AX 5AA 11AB 
    *  19    0.030259  (   12,    0)  1AX 2AX 3AX 4AB 5AX 8AA 
    *  20    0.030259  (    0,   12)  1AX 2AX 3AX 4AA 5AX 8AB 


   ==> CI root 4 information <==

    CI Root 4 energy =   -39.284602546813609

   The 20 most important determinants:

    *   1   -0.686829  (    7,    0)  1AX 2AX 3AX 4AB 5AX 7AA 
    *   2   -0.686829  (    0,    7)  1AX 2AX 3AX 4AA 5AX 7AB 
    *   3   -0.103614  (   32,    0)  1AX 2AX 3AX 4AB 5AX 12AA 
    *   4   -0.103614  (    0,   32)  1AX 2AX 3AX 4AA 5AX 12AB 
    *   5    0.065140  (   17,    0)  1AX 2AX 3AX 4AB 5AX 9AA 
    *   6    0.065140  (    0,   17)  1AX 2AX 3AX 4AA 5AX 9AB 
    *   7   -0.054559  (   37,    0)  1AX 2AX 3AX 4AB 5AX 13AA 
    *   8   -0.054559  (    0,   37)  1AX 2AX 3AX 4AA 5AX 13AB 
    *   9   -0.043457  (    0,   12)  1AX 2AX 3AX 4AA 5AX 8AB 
    *  10   -0.043457  (   12,    0)  1AX 2AX 3AX 4AB 5AX 8AA 
    *  11   -0.040471  (    6,    0)  1AX 2AX 3AX 4AX 5AB 7AA 
    *  12   -0.040471  (    0,    6)  1AX 2AX 3AX 4AX 5AA 7AB 
    *  13   -0.039020  (   47,    0)  1AX 2AX 3AX 4AB 5AX 15AA 
    *  14   -0.039020  (    0,   47)  1AX 2AX 3AX 4AA 5AX 15AB 
    *  15   -0.030868  (    2,    0)  1AX 2AX 3AX 4AB 5AX 6AA 
    *  16   -0.030868  (    0,    2)  1AX 2AX 3AX 4AA 5AX 6AB 
    *  17    0.028661  (   27,    0)  1AX 2AX 3AX 4AB 5AX 11AA 
    *  18    0.028661  (    0,   27)  1AX 2AX 3AX 4AA 5AX 11AB 
    *  19    0.026647  (   42,    0)  1AX 2AX 3AX 4AB 5AX 14AA 
    *  20    0.026647  (    0,   42)  1AX 2AX 3AX 4AA 5AX 14AB 


   ==> CI root 5 information <==

    CI Root 5 energy =   -39.263364650283016

   The 20 most important determinants:

    *   1   -0.685074  (   11,    0)  1AX 2AX 3AX 4AX 5AB 8AA 
    *   2   -0.685074  (    0,   11)  1AX 2AX 3AX 4AX 5AA 8AB 
    *   3   -0.124861  (   21,    0)  1AX 2AX 3AX 4AX 5AB 10AA 
    *   4   -0.124861  (    0,   21)  1AX 2AX 3AX 4AX 5AA 10AB 
    *   5    0.065040  (   17,    0)  1AX 2AX 3AX 4AB 5AX 9AA 
    *   6    0.065040  (    0,   17)  1AX 2AX 3AX 4AA 5AX 9AB 
    *   7    0.046221  (   51,    0)  1AX 2AX 3AX 4AX 5AB 16AA 
    *   8    0.046221  (    0,   51)  1AX 2AX 3AX 4AX 5AA 16AB 
    *   9    0.045853  (    0,   12)  1AX 2AX 3AX 4AA 5AX 8AB 
    *  10    0.045853  (   12,    0)  1AX 2AX 3AX 4AB 5AX 8AA 
    *  11   -0.032928  (    0,   41)  1AX 2AX 3AX 4AX 5AA 14AB 
    *  12   -0.032928  (   41,    0)  1AX 2AX 3AX 4AX 5AB 14AA 
    *  13   -0.032381  (    0,   46)  1AX 2AX 3AX 4AX 5AA 15AB 
    *  14   -0.032381  (   46,    0)  1AX 2AX 3AX 4AX 5AB 15AA 
    *  15   -0.025316  (   26,    0)  1AX 2AX 3AX 4AX 5AB 11AA 
    *  16   -0.025316  (    0,   26)  1AX 2AX 3AX 4AX 5AA 11AB 
    *  17   -0.023216  (   22,    0)  1AX 2AX 3AX 4AB 5AX 10AA 
    *  18   -0.023216  (    0,   22)  1AX 2AX 3AX 4AA 5AX 10AB 
    *  19    0.018479  (   56,    0)  1AX 2AX 3AX 4AX 5AB 17AA 
    *  20    0.018479  (    0,   56)  1AX 2AX 3AX 4AX 5AA 17AB 


   ==> CI root 6 information <==

    CI Root 6 energy =   -39.228019432198053

   The 20 most important determinants:

    *   1    0.522233  (    0,   16)  1AX 2AX 3AX 4AX 5AA 9AB 
    *   2    0.522233  (   16,    0)  1AX 2AX 3AX 4AX 5AB 9AA 
    *   3   -0.458364  (    0,   12)  1AX 2AX 3AX 4AA 5AX 8AB 
    *   4   -0.458364  (   12,    0)  1AX 2AX 3AX 4AB 5AX 8AA 
    *   5   -0.065703  (    0,   21)  1AX 2AX 3AX 4AX 5AA 10AB 
    *   6   -0.065703  (   21,    0)  1AX 2AX 3AX 4AX 5AB 10AA 
    *   7    0.050481  (    0,   56)  1AX 2AX 3AX 4AX 5AA 17AB 
    *   8    0.050481  (   56,    0)  1AX 2AX 3AX 4AX 5AB 17AA 
    *   9   -0.043494  (    0,   17)  1AX 2AX 3AX 4AA 5AX 9AB 
    *  10   -0.043494  (   17,    0)  1AX 2AX 3AX 4AB 5AX 9AA 
    *  11   -0.040051  (    1,    0)  1AX 2AX 3AX 4AX 5AB 6AA 
    *  12   -0.040051  (    0,    1)  1AX 2AX 3AX 4AX 5AA 6AB 
    *  13   -0.037023  (   11,    0)  1AX 2AX 3AX 4AX 5AB 8AA 
    *  14   -0.037023  (    0,   11)  1AX 2AX 3AX 4AX 5AA 8AB 
    *  15    0.032702  (    0,   52)  1AX 2AX 3AX 4AA 5AX 16AB 
    *  16    0.032702  (   52,    0)  1AX 2AX 3AX 4AB 5AX 16AA 
    *  17    0.025378  (   22,    0)  1AX 2AX 3AX 4AB 5AX 10AA 
    *  18    0.025378  (    0,   22)  1AX 2AX 3AX 4AA 5AX 10AB 
    *  19   -0.023217  (    0,   47)  1AX 2AX 3AX 4AA 5AX 15AB 
    *  20   -0.023217  (   47,    0)  1AX 2AX 3AX 4AB 5AX 15AA 


   ==> CI root 7 information <==

    CI Root 7 energy =   -39.206768987829946

   The 20 most important determinants:

    *   1    0.409221  (    0,   12)  1AX 2AX 3AX 4AA 5AX 8AB 
    *   2    0.409221  (   12,    0)  1AX 2AX 3AX 4AB 5AX 8AA 
    *   3    0.402227  (   16,    0)  1AX 2AX 3AX 4AX 5AB 9AA 
    *   4    0.402227  (    0,   16)  1AX 2AX 3AX 4AX 5AA 9AB 
    *   5    0.388512  (    0,   21)  1AX 2AX 3AX 4AX 5AA 10AB 
    *   6    0.388512  (   21,    0)  1AX 2AX 3AX 4AX 5AB 10AA 
    *   7   -0.072427  (    1,    0)  1AX 2AX 3AX 4AX 5AB 6AA 
    *   8   -0.072427  (    0,    1)  1AX 2AX 3AX 4AX 5AA 6AB 
    *   9   -0.055517  (   11,    0)  1AX 2AX 3AX 4AX 5AB 8AA 
    *  10   -0.055517  (    0,   11)  1AX 2AX 3AX 4AX 5AA 8AB 
    *  11   -0.042320  (    0,   22)  1AX 2AX 3AX 4AA 5AX 10AB 
    *  12   -0.042320  (   22,    0)  1AX 2AX 3AX 4AB 5AX 10AA 
    *  13   -0.040924  (    0,    7)  1AX 2AX 3AX 4AA 5AX 7AB 
    *  14   -0.040924  (    7,    0)  1AX 2AX 3AX 4AB 5AX 7AA 
    *  15   -0.038276  (    0,    3)  1AX 2AX 3AA 4AX 5AX 6AB 
    *  16   -0.038276  (    3,    0)  1AX 2AX 3AB 4AX 5AX 6AA 
    *  17   -0.023398  (    0,   23)  1AX 2AX 3AA 4AX 5AX 10AB 
    *  18   -0.023398  (   23,    0)  1AX 2AX 3AB 4AX 5AX 10AA 
    *  19   -0.021848  (   27,    0)  1AX 2AX 3AX 4AB 5AX 11AA 
    *  20   -0.021848  (    0,   27)  1AX 2AX 3AX 4AA 5AX 11AB 

		 "A good bug is a dead bug" 

			 - Starship Troopers

		 "I didn't write FORTRAN.  That's the problem."

			 - Edward Valeev
  -AO BASIS SET INFORMATION:
    Name                   = CC-PVDZ
    Blend                  = CC-PVDZ
    Total number of shells = 18
    Number of primitives   = 42
    Number of AO           = 35
    Number of SO           = 34
    Maximum AM             = 2
    Spherical Harmonics    = TRUE

  -Contraction Scheme:
    Atom   Type   All Primitives // Shells:
   ------ ------ --------------------------
       1     C     17s 4p 1d // 3s 2p 1d 
       2     H     4s 1p // 2s 1p 
       3     H     4s 1p // 2s 1p 
       4     H     4s 1p // 2s 1p 
       5     H     4s 1p // 2s 1p 

  ==> AO Basis Functions <==

    [ CC-PVDZ ]
    spherical
    ****
    C   1
    S   8 1.00
                      6665.00000000           0.00069200
                      1000.00000000           0.00532900
                       228.00000000           0.02707700
                        64.71000000           0.10171800
                        21.06000000           0.27474000
                         7.49500000           0.44856400
                         2.79700000           0.28507400
                         0.52150000           0.01520400
    S   8 1.00
                      6665.00000000          -0.00014600
                      1000.00000000          -0.00115400
                       228.00000000          -0.00572500
                        64.71000000          -0.02331200
                        21.06000000          -0.06395500
                         7.49500000          -0.14998100
                         2.79700000          -0.12726200
                         0.52150000           0.54452900
    S   1 1.00
                         0.15960000           1.00000000
    P   3 1.00
                         9.43900000           0.03810900
                         2.00200000           0.20948000
                         0.54560000           0.50855700
    P   1 1.00
                         0.15170000           1.00000000
    D   1 1.00
                         0.55000000           1.00000000
    ****
    H   2
    S   3 1.00
                        13.01000000           0.01968500
                         1.96200000           0.13797700
                         0.44460000           0.47814800
    S   1 1.00
                         0.12200000           1.00000000
    P   1 1.00
                         0.72700000           1.00000000
    ****
    H   3
    S   3 1.00
                        13.01000000           0.01968500
                         1.96200000           0.13797700
                         0.44460000           0.47814800
    S   1 1.00
                         0.12200000           1.00000000
    P   1 1.00
                         0.72700000           1.00000000
    ****
    H   4
    S   3 1.00
                        13.01000000           0.01968500
                         1.96200000           0.13797700
                         0.44460000           0.47814800
    S   1 1.00
                         0.12200000           1.00000000
    P   1 1.00
                         0.72700000           1.00000000
    ****
    H   5
    S   3 1.00
                        13.01000000           0.01968500
                         1.96200000           0.13797700
                         0.44460000           0.47814800
    S   1 1.00
                         0.12200000           1.00000000
    P   1 1.00
                         0.72700000           1.00000000
    ****

  ## S (Symmetry 0) ##
  Irrep: 1 Size: 34 x 34

                 1                   2                   3                   4                   5

    1     1.00000000000000    -0.21569951246502     0.19014030769023     0.00000000000000    -0.00000000000000
    2    -0.21569951246502     1.00000000000000     0.71833182144562    -0.00000000000000     0.00000000000000
    3     0.19014030769023     0.71833182144562     1.00000000000000    -0.00000000000000     0.00000000000000
    4     0.00000000000000     0.00000000000000    -0.00000000000000     1.00000000000000    -0.00000000000000
    5    -0.00000000000000    -0.00000000000000     0.00000000000000    -0.00000000000000     1.00000000000000
    6     0.00000000000000     0.00000000000000    -0.00000000000000     0.00000000000000    -0.00000000000000
    7    -0.00000000000000     0.00000000000000     0.00000000000000     0.53075947453445    -0.00000000000000
    8     0.00000000000000    -0.00000000000000    -0.00000000000000    -0.00000000000000     0.53075947453445
    9    -0.00000000000000     0.00000000000000     0.00000000000000     0.00000000000000    -0.00000000000000
   10     0.00000000000000     0.00000000000000     0.00000000000000     0.00000000000000     0.00000000000000
   11    -0.00000000000000    -0.00000000000000    -0.00000000000000    -0.00000000000000     0.00000000000000
   12     0.00000000000000     0.00000000000000     0.00000000000000     0.00000000000000    -0.00000000000000
   13     0.00000000000000    -0.00000000000000     0.00000000000000     0.00000000000000    -0.00000000000000
   14    -0.00000000000000    -0.00000000000000    -0.00000000000000    -0.00000000000000     0.00000000000000
   15     0.07472073151324     0.36840362270638     0.49799576222329     0.43999809059930    -0.00000000000000
   16     0.10401510888105     0.46028921023346     0.77073340757038     0.20546930911138    -0.00000000000000
   17    -0.14482480550344    -0.38326358867715    -0.24485833283144    -0.39856723664090    -0.00000000000000
   18    -0.00000000000000     0.00000000000000    -0.00000000000000     0.00000000000000     0.27874981775908
   19    -0.00000000000000    -0.00000000000000    -0.00000000000000     0.00000000000000    -0.00000000000000
   20     0.05216086064287     0.29816561299322     0.44709390834712    -0.33929621057412    -0.00000000000000
   21     0.09367803339561     0.42255333761466     0.72459459630002    -0.18770917891511    -0.00000000000000
   22     0.08417481266027     0.31157950464492     0.21785803594540    -0.28788530510820     0.00000000000000
   23    -0.00000000000000     0.00000000000000    -0.00000000000000    -0.00000000000000     0.20617740466540
   24    -0.04208740633014    -0.15578975232246    -0.10892901797270     0.24703135488680    -0.00000000000000
   25     0.04161274044823     0.26025921517124     0.41729763669012     0.28835335071606    -0.14417667535803
   26     0.08760916315015     0.40003090496818     0.69652590208325     0.17715854497102    -0.08857927248551
   27    -0.05967988454400    -0.27017135885112    -0.20216182493871    -0.23464816806636     0.20249414932805
   28     0.02983994227200     0.13508567942556     0.10108091246935     0.20249414932805     0.06909305592572
   29     0.02387195381760     0.10806854354045     0.08086472997548     0.16199531946244    -0.08099765973122
   30     0.04161274044823     0.26025921517124     0.41729763669012    -0.28835335071606     0.14417667535803
   31     0.08760916315015     0.40003090496818     0.69652590208325    -0.17715854497102     0.08857927248551
   32     0.05967988454400     0.27017135885112     0.20216182493871    -0.23464816806636     0.20249414932805
   33    -0.02983994227200    -0.13508567942556    -0.10108091246935     0.20249414932805     0.06909305592572
   34    -0.02387195381760    -0.10806854354045    -0.08086472997548     0.16199531946244    -0.08099765973122

                 6                   7                   8                   9                  10

    1     0.00000000000000    -0.00000000000000     0.00000000000000    -0.00000000000000     0.00000000000000
    2     0.00000000000000    -0.00000000000000     0.00000000000000     0.00000000000000     0.00000000000000
    3     0.00000000000000     0.00000000000000    -0.00000000000000     0.00000000000000     0.00000000000000
    4     0.00000000000000     0.53075947453445    -0.00000000000000    -0.00000000000000     0.00000000000000
    5    -0.00000000000000    -0.00000000000000     0.53075947453445     0.00000000000000     0.00000000000000
    6     1.00000000000000    -0.00000000000000     0.00000000000000     0.53075947453445    -0.00000000000000
    7     0.00000000000000     1.00000000000000    -0.00000000000000     0.00000000000000     0.00000000000000
    8    -0.00000000000000    -0.00000000000000     1.00000000000000    -0.00000000000000     0.00000000000000
    9     0.53075947453445     0.00000000000000    -0.00000000000000     1.00000000000000     0.00000000000000
   10    -0.00000000000000    -0.00000000000000    -0.00000000000000     0.00000000000000     1.00000000000000
   11    -0.00000000000000     0.00000000000000    -0.00000000000000     0.00000000000000    -0.00000000000000
   12     0.00000000000000    -0.00000000000000     0.00000000000000    -0.00000000000000     0.00000000000000
   13    -0.00000000000000    -0.00000000000000     0.00000000000000     0.00000000000000     0.00000000000000
   14    -0.00000000000000     0.00000000000000    -0.00000000000000     0.00000000000000     0.00000000000000
   15    -0.00000000000000     0.55954338525065    -0.00000000000000     0.00000000000000     0.41459002086417
   16     0.00000000000000     0.51083213119128     0.00000000000000    -0.00000000000000     0.07084599268972
   17    -0.00000000000000     0.03286885856564    -0.00000000000000    -0.00000000000000    -0.06946273091153
   18    -0.00000000000000     0.00000000000000     0.31730014749387     0.00000000000000    -0.00000000000000
   19     0.27874981775908     0.00000000000000     0.00000000000000     0.31730014749387     0.00000000000000
   20     0.16964810528706    -0.50412905582238    -0.00000000000000     0.25206452791119     0.27925050576347
   21     0.09385458945756    -0.48090647267814     0.00000000000000     0.24045323633907     0.05670334721763
   22     0.24703135488680     0.02938470519355     0.00000000000000     0.12714055093040    -0.00960581597493
   23     0.00000000000000    -0.00000000000000     0.28366580705435     0.00000000000000    -0.00000000000000
   24     0.08266172722200     0.12714055093040    -0.00000000000000     0.22009553158915    -0.32857751819348
   25    -0.11534134028642     0.47159715522088    -0.23579857761044    -0.18863886208835     0.21518599077943
   26    -0.07086341798841     0.46268068368664    -0.23134034184332    -0.18507227347466     0.04866204969183
   27     0.16199531946244     0.02735122837374     0.11834218588056     0.09467374870445     0.04128096652096
   28    -0.08099765973122     0.11834218588056     0.20486450719458    -0.04733687435222     0.25812717391508
   29     0.10554200280477     0.09467374870445    -0.04733687435222     0.22616610065308     0.20650173913207
   30     0.11534134028642    -0.47159715522088     0.23579857761044     0.18863886208835     0.21518599077943
   31     0.07086341798841    -0.46268068368664     0.23134034184332     0.18507227347466     0.04866204969183
   32     0.16199531946244     0.02735122837374     0.11834218588056     0.09467374870445    -0.04128096652096
   33    -0.08099765973122     0.11834218588056     0.20486450719458    -0.04733687435222    -0.25812717391508
   34     0.10554200280477     0.09467374870445    -0.04733687435222     0.22616610065308    -0.20650173913207

                11                  12                  13                  14                  15

    1    -0.00000000000000     0.00000000000000     0.00000000000000    -0.00000000000000     0.07472073151324
    2    -0.00000000000000     0.00000000000000    -0.00000000000000    -0.00000000000000     0.36840362270638
    3    -0.00000000000000     0.00000000000000     0.00000000000000    -0.00000000000000     0.49799576222329
    4    -0.00000000000000     0.00000000000000     0.00000000000000    -0.00000000000000     0.43999809059930
    5     0.00000000000000    -0.00000000000000    -0.00000000000000     0.00000000000000     0.00000000000000
    6    -0.00000000000000     0.00000000000000    -0.00000000000000    -0.00000000000000    -0.00000000000000
    7    -0.00000000000000    -0.00000000000000     0.00000000000000     0.00000000000000     0.55954338525065
    8     0.00000000000000     0.00000000000000    -0.00000000000000    -0.00000000000000    -0.00000000000000
    9     0.00000000000000     0.00000000000000     0.00000000000000    -0.00000000000000     0.00000000000000
   10    -0.00000000000000     0.00000000000000     0.00000000000000     0.00000000000000     0.41459002086417
   11     1.00000000000000    -0.00000000000000    -0.00000000000000     0.00000000000000     0.00000000000000
   12    -0.00000000000000     1.00000000000000    -0.00000000000000    -0.00000000000000    -0.00000000000000
   13    -0.00000000000000    -0.00000000000000     1.00000000000000     0.00000000000000     0.00000000000000
   14     0.00000000000000    -0.00000000000000     0.00000000000000     1.00000000000000    -0.00000000000000
   15     0.00000000000000    -0.00000000000000     0.00000000000000    -0.00000000000000     1.00000000000000
   16    -0.00000000000000    -0.00000000000000     0.00000000000000     0.00000000000000     0.68486025149275
   17     0.00000000000000    -0.00000000000000     0.00000000000000     0.00000000000000     0.00000000000000
   18     0.50911060201243    -0.00000000000000    -0.00000000000000     0.00000000000000    -0.00000000000000
   19    -0.00000000000000     0.50911060201243    -0.00000000000000    -0.00000000000000    -0.00000000000000
   20    -0.00000000000000    -0.27638632229808    -0.06909658057452     0.00000000000000     0.02376488817454
   21     0.00000000000000    -0.05612175905152    -0.01403043976288    -0.00000000000000     0.15552020748081
   22     0.00000000000000    -0.23796349484517    -0.10761019341082    -0.00000000000000     0.02920003609690
   23    -0.38495455759624     0.00000000000000    -0.00000000000000     0.19247727879812    -0.00000000000000
   24    -0.00000000000000    -0.16973417077460    -0.13867218209271    -0.00000000000000    -0.00730000902423
   25    -0.23441073528743    -0.18752858822994     0.02109696617587     0.09376429411497     0.65187172096225
   26    -0.05300952356396    -0.04240761885117     0.00477085712076     0.02120380942558     0.59338991053199
   27     0.19898146604232     0.15918517283385    -0.03239352431586    -0.14397121918160     0.00000000000000
   28     0.14192913984635    -0.14397121918160    -0.14474981975374    -0.05677165593854     0.42949169504015
   29    -0.14397121918160     0.20671618847807     0.14171467525568    -0.10335809423903     0.34359335603212
   30    -0.23441073528743    -0.18752858822994     0.02109696617587     0.09376429411497     0.02085622087598
   31    -0.05300952356396    -0.04240761885117     0.00477085712076     0.02120380942558     0.14709996666879
   32    -0.19898146604232    -0.15918517283385     0.03239352431586     0.14397121918160     0.02490723591516
   33    -0.14192913984635     0.14397121918160     0.14474981975374     0.05677165593854    -0.00622680897879
   34     0.14397121918160    -0.20671618847807    -0.14171467525568     0.10335809423903    -0.00498144718303

                16                  17                  18                  19                  20

    1     0.10401510888105    -0.14482480550344    -0.00000000000000    -0.00000000000000     0.05216086064287
    2     0.46028921023346    -0.38326358867715     0.00000000000000    -0.00000000000000     0.29816561299322
    3     0.77073340757038    -0.24485833283144     0.00000000000000    -0.00000000000000     0.44709390834712
    4     0.20546930911138    -0.39856723664090     0.00000000000000     0.00000000000000    -0.33929621057412
    5     0.00000000000000    -0.00000000000000     0.27874981775908    -0.00000000000000     0.00000000000000
    6    -0.00000000000000    -0.00000000000000    -0.00000000000000     0.27874981775908     0.16964810528706
    7     0.51083213119128     0.03286885856564     0.00000000000000     0.00000000000000    -0.50412905582238
    8     0.00000000000000    -0.00000000000000     0.31730014749387     0.00000000000000    -0.00000000000000
    9    -0.00000000000000    -0.00000000000000     0.00000000000000     0.31730014749387     0.25206452791119
   10     0.07084599268972    -0.06946273091153    -0.00000000000000     0.00000000000000     0.27925050576347
   11    -0.00000000000000     0.00000000000000     0.50911060201243    -0.00000000000000    -0.00000000000000
   12    -0.00000000000000    -0.00000000000000    -0.00000000000000     0.50911060201243    -0.27638632229808
   13     0.00000000000000     0.00000000000000    -0.00000000000000    -0.00000000000000    -0.06909658057452
   14     0.00000000000000     0.00000000000000     0.00000000000000    -0.00000000000000     0.00000000000000
   15     0.68486025149275    -0.00000000000000    -0.00000000000000     0.00000000000000     0.02376488817454
   16     1.00000000000000    -0.00000000000000    -0.00000000000000     0.00000000000000     0.15552020748081
   17    -0.00000000000000     1.00000000000000     0.00000000000000    -0.00000000000000    -0.02920003609690
   18    -0.00000000000000     0.00000000000000     1.00000000000000    -0.00000000000000    -0.00000000000000
   19     0.00000000000000    -0.00000000000000    -0.00000000000000     1.00000000000000     0.00730000902423
   20     0.15552020748081    -0.02920003609690    -0.00000000000000     0.00730000902423     1.00000000000000
   21     0.39621489254159    -0.11148011101089    -0.00000000000000     0.02787002775272     0.68486025149275
   22     0.11148011101089    -0.03771215935711     0.00000000000000     0.01043266263136    -0.00000000000000
   23    -0.00000000000000    -0.00000000000000     0.00401849116832     0.00000000000000    -0.00000000000000
   24    -0.02787002775272     0.01043266263136    -0.00000000000000     0.00141032551048    -0.00000000000000
   25     0.59338991053199    -0.00000000000000    -0.42949169504015    -0.34359335603212     0.01230233490336
   26     0.91455988321202    -0.00000000000000    -0.11676001902495    -0.09340801521996     0.11734042483171
   27    -0.00000000000000     0.58730344724276    -0.00000000000000    -0.00000000000000    -0.01307685799351
   28     0.11676001902495     0.00000000000000     0.20611941132784    -0.30494722873194     0.00326921449838
   29     0.09340801521996     0.00000000000000    -0.30494722873194     0.34334566425721     0.00588458609708
   30     0.14709996666879    -0.02490723591516     0.00622680897879     0.00498144718303     0.75701602459372
   31     0.38264326389364    -0.10502052725883     0.02625513181471     0.02100410545177     0.62533797903865
   32     0.10502052725883    -0.03063948208047     0.00847608265329     0.00678086612263    -0.00000000000000
   33    -0.02625513181471     0.00847608265329     0.00114582786938    -0.00169521653066    -0.51749626668227
   34    -0.02100410545177     0.00678086612263    -0.00169521653066     0.00190867530818     0.10349925333645

                21                  22                  23                  24                  25

    1     0.09367803339561     0.08417481266027    -0.00000000000000    -0.04208740633014     0.04161274044823
    2     0.42255333761466     0.31157950464492     0.00000000000000    -0.15578975232246     0.26025921517124
    3     0.72459459630002     0.21785803594540     0.00000000000000    -0.10892901797270     0.41729763669012
    4    -0.18770917891511    -0.28788530510820    -0.00000000000000     0.24703135488680     0.28835335071606
    5     0.00000000000000     0.00000000000000     0.20617740466540    -0.00000000000000    -0.14417667535803
    6     0.09385458945756     0.24703135488680     0.00000000000000     0.08266172722200    -0.11534134028642
    7    -0.48090647267814     0.02938470519355    -0.00000000000000     0.12714055093040     0.47159715522088
    8     0.00000000000000     0.00000000000000     0.28366580705435    -0.00000000000000    -0.23579857761044
    9     0.24045323633907     0.12714055093040     0.00000000000000     0.22009553158915    -0.18863886208835
   10     0.05670334721763    -0.00960581597493    -0.00000000000000    -0.32857751819348     0.21518599077943
   11     0.00000000000000     0.00000000000000    -0.38495455759624    -0.00000000000000    -0.23441073528743
   12    -0.05612175905152    -0.23796349484517     0.00000000000000    -0.16973417077460    -0.18752858822994
   13    -0.01403043976288    -0.10761019341082    -0.00000000000000    -0.13867218209271     0.02109696617587
   14    -0.00000000000000    -0.00000000000000     0.19247727879812    -0.00000000000000     0.09376429411497
   15     0.15552020748081     0.02920003609690    -0.00000000000000    -0.00730000902423     0.65187172096225
   16     0.39621489254159     0.11148011101089    -0.00000000000000    -0.02787002775272     0.59338991053199
   17    -0.11148011101089    -0.03771215935711    -0.00000000000000     0.01043266263136     0.00000000000000
   18    -0.00000000000000     0.00000000000000     0.00401849116832    -0.00000000000000    -0.42949169504015
   19     0.02787002775272     0.01043266263136     0.00000000000000     0.00141032551048    -0.34359335603212
   20     0.68486025149275     0.00000000000000    -0.00000000000000    -0.00000000000000     0.01230233490336
   21     1.00000000000000     0.00000000000000    -0.00000000000000    -0.00000000000000     0.11734042483171
   22     0.00000000000000     1.00000000000000    -0.00000000000000    -0.00000000000000     0.01307685799351
   23    -0.00000000000000    -0.00000000000000     1.00000000000000     0.00000000000000    -0.00326921449838
   24    -0.00000000000000    -0.00000000000000     0.00000000000000     1.00000000000000    -0.00588458609708
   25     0.11734042483171     0.01307685799351    -0.00326921449838    -0.00588458609708     1.00000000000000
   26     0.33212466943934     0.08240644929892    -0.02060161232473    -0.03708290218451     0.68486025149275
   27    -0.08240644929892    -0.01317783298744     0.00364550553758     0.00656190996764     0.00000000000000
   28     0.02060161232473     0.00364550553758     0.00049281277847    -0.00164047749191    -0.00000000000000
   29     0.03708290218451     0.00656190996764    -0.00164047749191    -0.00154867032257     0.00000000000000
   30     0.62533797903865     0.00000000000000     0.51749626668227    -0.10349925333645     0.00770238540538
   31     0.94493693591973     0.00000000000000     0.12348015198435    -0.02469603039687     0.09592041523192
   32     0.00000000000000     0.71355102068011    -0.00000000000000     0.00000000000000     0.00737006589926
   33    -0.12348015198435     0.00000000000000     0.25042712932378     0.09262477827127    -0.00368503294963
   34     0.02469603039687    -0.00000000000000     0.09262477827127     0.69502606502586    -0.00294802635971

                26                  27                  28                  29                  30

    1     0.08760916315015    -0.05967988454400     0.02983994227200     0.02387195381760     0.04161274044823
    2     0.40003090496818    -0.27017135885112     0.13508567942556     0.10806854354045     0.26025921517124
    3     0.69652590208325    -0.20216182493871     0.10108091246935     0.08086472997548     0.41729763669012
    4     0.17715854497102    -0.23464816806636     0.20249414932805     0.16199531946244    -0.28835335071606
    5    -0.08857927248551     0.20249414932805     0.06909305592572    -0.08099765973122     0.14417667535803
    6    -0.07086341798841     0.16199531946244    -0.08099765973122     0.10554200280477     0.11534134028642
    7     0.46268068368664     0.02735122837374     0.11834218588056     0.09467374870445    -0.47159715522088
    8    -0.23134034184332     0.11834218588056     0.20486450719458    -0.04733687435222     0.23579857761044
    9    -0.18507227347466     0.09467374870445    -0.04733687435222     0.22616610065308     0.18863886208835
   10     0.04866204969183     0.04128096652096     0.25812717391508     0.20650173913207     0.21518599077943
   11    -0.05300952356396     0.19898146604232     0.14192913984635    -0.14397121918160    -0.23441073528743
   12    -0.04240761885117     0.15918517283385    -0.14397121918160     0.20671618847807    -0.18752858822994
   13     0.00477085712076    -0.03239352431586    -0.14474981975374     0.14171467525568     0.02109696617587
   14     0.02120380942558    -0.14397121918160    -0.05677165593854    -0.10335809423903     0.09376429411497
   15     0.59338991053199    -0.00000000000000     0.42949169504015     0.34359335603212     0.02085622087598
   16     0.91455988321202    -0.00000000000000     0.11676001902495     0.09340801521996     0.14709996666879
   17    -0.00000000000000     0.58730344724276     0.00000000000000     0.00000000000000    -0.02490723591516
   18    -0.11676001902495    -0.00000000000000     0.20611941132784    -0.30494722873194     0.00622680897879
   19    -0.09340801521996    -0.00000000000000    -0.30494722873194     0.34334566425721     0.00498144718303
   20     0.11734042483171    -0.01307685799351     0.00326921449838     0.00588458609708     0.75701602459372
   21     0.33212466943934    -0.08240644929892     0.02060161232473     0.03708290218451     0.62533797903865
   22     0.08240644929892    -0.01317783298744     0.00364550553758     0.00656190996764    -0.00000000000000
   23    -0.02060161232473     0.00364550553758     0.00049281277847    -0.00164047749191     0.51749626668227
   24    -0.03708290218451     0.00656190996764    -0.00164047749191    -0.00154867032257    -0.10349925333645
   25     0.68486025149275    -0.00000000000000     0.00000000000000     0.00000000000000     0.00770238540538
   26     1.00000000000000    -0.00000000000000     0.00000000000000     0.00000000000000     0.09592041523192
   27    -0.00000000000000     1.00000000000000    -0.00000000000000    -0.00000000000000    -0.00737006589926
   28     0.00000000000000    -0.00000000000000     1.00000000000000     0.00000000000000     0.00368503294963
   29    -0.00000000000000    -0.00000000000000     0.00000000000000     1.00000000000000     0.00294802635971
   30     0.09592041523192    -0.00737006589926     0.00368503294963     0.00294802635971     1.00000000000000
   31     0.29270525150464    -0.06637271889597     0.03318635944799     0.02654908755839     0.68486025149275
   32     0.06637271889597    -0.00620681884168     0.00343409913901     0.00274727931121    -0.00000000000000
   33    -0.03318635944799     0.00343409913901    -0.00105567013317    -0.00137363965560     0.00000000000000
   34    -0.02654908755839     0.00274727931121    -0.00137363965560    -0.00043753228815    -0.00000000000000

                31                  32                  33                  34

    1     0.08760916315015     0.05967988454400    -0.02983994227200    -0.02387195381760
    2     0.40003090496818     0.27017135885112    -0.13508567942556    -0.10806854354045
    3     0.69652590208325     0.20216182493871    -0.10108091246935    -0.08086472997548
    4    -0.17715854497102    -0.23464816806636     0.20249414932805     0.16199531946244
    5     0.08857927248551     0.20249414932805     0.06909305592572    -0.08099765973122
    6     0.07086341798841     0.16199531946244    -0.08099765973122     0.10554200280477
    7    -0.46268068368664     0.02735122837374     0.11834218588056     0.09467374870445
    8     0.23134034184332     0.11834218588056     0.20486450719458    -0.04733687435222
    9     0.18507227347466     0.09467374870445    -0.04733687435222     0.22616610065308
   10     0.04866204969183    -0.04128096652096    -0.25812717391508    -0.20650173913207
   11    -0.05300952356396    -0.19898146604232    -0.14192913984635     0.14397121918160
   12    -0.04240761885117    -0.15918517283385     0.14397121918160    -0.20671618847807
   13     0.00477085712076     0.03239352431586     0.14474981975374    -0.14171467525568
   14     0.02120380942558     0.14397121918160     0.05677165593854     0.10335809423903
   15     0.14709996666879     0.02490723591516    -0.00622680897879    -0.00498144718303
   16     0.38264326389364     0.10502052725883    -0.02625513181471    -0.02100410545177
   17    -0.10502052725883    -0.03063948208047     0.00847608265329     0.00678086612263
   18     0.02625513181471     0.00847608265329     0.00114582786938    -0.00169521653066
   19     0.02100410545177     0.00678086612263    -0.00169521653066     0.00190867530818
   20     0.62533797903865     0.00000000000000    -0.51749626668227     0.10349925333645
   21     0.94493693591973     0.00000000000000    -0.12348015198435     0.02469603039687
   22     0.00000000000000     0.71355102068011     0.00000000000000    -0.00000000000000
   23     0.12348015198435    -0.00000000000000     0.25042712932378     0.09262477827127
   24    -0.02469603039687     0.00000000000000     0.09262477827127     0.69502606502586
   25     0.09592041523192     0.00737006589926    -0.00368503294963    -0.00294802635971
   26     0.29270525150464     0.06637271889597    -0.03318635944799    -0.02654908755839
   27    -0.06637271889597    -0.00620681884168     0.00343409913901     0.00274727931121
   28     0.03318635944799     0.00343409913901    -0.00105567013317    -0.00137363965560
   29     0.02654908755839     0.00274727931121    -0.00137363965560    -0.00043753228815
   30     0.68486025149275     0.00000000000000    -0.00000000000000    -0.00000000000000
   31     1.00000000000000     0.00000000000000    -0.00000000000000    -0.00000000000000
   32     0.00000000000000     1.00000000000000    -0.00000000000000    -0.00000000000000
   33    -0.00000000000000    -0.00000000000000     1.00000000000000     0.00000000000000
   34    -0.00000000000000    -0.00000000000000     0.00000000000000     1.00000000000000



  ## Alpha MO coefficients (Symmetry 0) ##
  Irrep: 1 Size: 34 x 34

                 1                   2                   3                   4                   5

    1     1.00206311978130     0.04583684384855     0.00675736314920     0.00172181463630     0.00273571195165
    2     0.00480432622631    -0.25220953573566    -0.04284998627011    -0.01817787015379    -0.07957376604019
    3    -0.00294647190558    -0.14544585375723    -0.03294726349104    -0.08584797391806    -0.21904059859638
    4     0.00029600432054    -0.00402765850186    -0.25872259244208     0.18368467296744     0.09675633825259
    5    -0.00036356030731    -0.00255978566995     0.05039992047554     0.43975456976418    -0.25371064205484
    6     0.00181361301046    -0.03000396784575     0.06692089571103     0.20566835529652     0.45725063078666
    7     0.00003052385009    -0.00222617262628     0.06649901110583     0.10534415801655     0.09744045891395
    8     0.00003608173708     0.00531918793934    -0.01359941020815     0.31706346716195    -0.21374588539645
    9    -0.00066951114986     0.00169440080385    -0.02320762027419     0.16409588250776     0.41934003820006
   10     0.00230102117341     0.01434691108125    -0.01133322731769     0.00077385188985    -0.00967880803567
   11    -0.00057534086634    -0.00397825112633     0.00435264969240     0.00661431224011     0.00148582561353
   12    -0.00117884282767    -0.00825897222515    -0.00486803385459     0.01148351177872     0.00731776274794
   13    -0.00008996822777    -0.00180085230001    -0.00194466521981    -0.00924870181261    -0.01283496441311
   14     0.00024814056223     0.00103143910124    -0.00193386957201     0.00917685710930    -0.01179906774713
   15    -0.00137993755753    -0.25627329215862    -0.32505989350165     0.16548170502646     0.07666554937116
   16     0.00112524081545    -0.02887287861207    -0.05970167772885     0.30618208496011     0.06845980171010
   17     0.00091310429087     0.03987642727738     0.02162598059705    -0.01222999476713    -0.00312367580209
   18    -0.00028316443796     0.01413218646124     0.01959418883483     0.02637578982143    -0.01821906253775
   19    -0.00010384414670     0.00992920407731     0.01495484566359     0.01290363871226     0.02610762729615
   20    -0.00126105173322    -0.28371591726170     0.30172810406534    -0.06491696427720     0.11743919824451
   21     0.00071101132840    -0.01727702790774     0.06339384638059    -0.22771135017488     0.26053558739814
   22    -0.00117394502025    -0.03632154512681     0.01882754805637    -0.00447498334287     0.02144871182225
   23     0.00028426842706    -0.02155280596694     0.02141346942476     0.02634726571566    -0.01473121332120
   24     0.00071736908786     0.02030475053252    -0.01500339766308     0.01580314234597     0.01745968548787
   25    -0.00135967558509    -0.19137835838421    -0.26399437503252    -0.15604058908210     0.00187300369951
   26    -0.00016768893181    -0.00180908394518    -0.05748468138839    -0.29879842593488    -0.04085307628871
   27     0.00070989463149     0.01709362392193     0.01196921895972     0.02458530227657     0.00726422870955
   28    -0.00054413747883    -0.01791891067284    -0.01553798017661     0.01639159756072    -0.01030603482464
   29    -0.00032198823626    -0.01562778876000    -0.01304843127310     0.00565195744762     0.02661548917127
   30    -0.00114776875084    -0.26234532942616     0.28250976454709     0.08696118425450    -0.03151064202072
   31     0.00015245947655    -0.01720575542003     0.04619911026264     0.21902643251888    -0.20941314719099
   32    -0.00055733028470    -0.02205677545028     0.01382149805390     0.02397975499608    -0.00773200304602
   33     0.00043323231556     0.03492371531022    -0.02856490594534     0.01546545840244    -0.01606802550670
   34     0.00024109998838     0.00208124093407    -0.00151412928585     0.00267133145635     0.02984077137787

                 6                   7                   8                   9                  10

    1     0.07707979585080    -0.00092578923288     0.03478734974577     0.01481090585411     0.05200884611843
    2    -0.20531316628146     0.00142929761711     0.00735452724745    -0.00024356162517     0.01516676582984
    3    -1.58892122429791    -0.04882571633929    -1.23764019363289     0.50265297806533    -0.19738382804593
    4     0.03201575086774    -0.21389400566974    -0.05258326141404     0.09015563234645    -0.03596948836508
    5     0.02746176025069     0.07998580497106     0.03582915584815     0.18267246067130    -0.15980062572907
    6    -0.06912955414110     0.09648756499545    -0.10058540827855    -0.00494806051212    -0.07901467964132
    7     0.06073642895087    -1.39119551617579    -0.36192855884460     0.48203952928794    -0.55955656386519
    8     0.05182256224855     0.41998245091293     0.15811559318722     0.82578266600647    -0.57253816452539
    9    -0.08517242620478     0.53766701800072    -0.41863862705238    -0.02550807460815    -0.27039327012384
   10    -0.01469093460070    -0.01877989249632    -0.03779695400410     0.06792060658524     0.08590804548777
   11    -0.00470469394894    -0.00015637260689     0.04367797179526    -0.02042845892010    -0.03506960602616
   12     0.00453015238964    -0.01905644700613     0.02682160637957    -0.04237024886903    -0.04509625126235
   13     0.00236511693372    -0.00662947809634    -0.00012796474503    -0.00866934434495     0.00051529746067
   14     0.00279142083711     0.00161750537476    -0.01544905550225     0.01632817993957     0.00567878619994
   15     0.10939483933599    -0.09047834745828     0.03054779968073     0.17391708406257     0.31895533238246
   16     0.02866769483497     0.66964764545519     2.50189894861182    -2.26857341124808     2.43023815268114
   17     0.00850039677696    -0.00023741491200    -0.02165707397519     0.03629693791026     0.03164989157031
   18    -0.01157110397778     0.01500527597201     0.01703467037014     0.01264785250810    -0.01891885521982
   19    -0.01809742149922     0.01724261596282     0.00000013192772    -0.01488410262005    -0.00884300475484
   20     0.15701750213060     0.03659902916118     0.00868105957528     0.29212475527013     0.34301003896129
   21     0.14610060603663    -1.05544956459846     2.67207752641365     2.86881346134203    -1.76771251739341
   22    -0.01341335665891     0.00386106832405     0.01346224352638    -0.01241440729327    -0.04318363479641
   23     0.02084915384672     0.00937240397351    -0.00950811379305     0.00378032274678    -0.01623818250640
   24    -0.00168139608362    -0.00436181580823    -0.01758586655996     0.01523386319147    -0.00110901247842
   25     0.27607210442091     0.01114433155284    -0.16191316603800     0.18079051725629     0.25393987086177
   26     0.78540619363627     1.36032232811099    -1.30584854606179     1.21826831242196    -2.42118153296556
   27     0.01590678356323    -0.00147089627573    -0.00717432372744     0.02175215323804     0.03258837060200
   28     0.01388585326191     0.00589190686390     0.02371909372105     0.01453771758160    -0.01422601333073
   29     0.00674060014095     0.00802253650558     0.00097477506449    -0.01453482592922    -0.00986329717373
   30     0.25162263223184     0.02394350062790    -0.17260774966118     0.19457443439088     0.33093188821658
   31     0.69125800838064    -0.88257231303234    -2.16313360444125    -3.23425341228651     0.68992198036386
   32    -0.01639198846094     0.00579533671750    -0.00119949655851    -0.02596593482964    -0.03793777517961
   33    -0.01133965181006     0.00356597446846    -0.02018983611713     0.01918289946257     0.00116671112585
   34     0.01022685734399    -0.00104594196056    -0.01004864131395     0.01429211286488    -0.00443771097274

                11                  12                  13                  14                  15

    1     0.06748794853076     0.03664325194984     0.03009793426647     0.28069279113808     0.24693798693335
    2     0.13086396252634     0.05930426265388     0.06680185289165     0.64639175924226     0.56675899819210
    3    -0.67334182375034    -0.18932447287599    -0.14110338652292    -1.17296632325944    -0.93698426521179
    4     0.39057252794370    -0.44199908847704    -0.33376092178187     0.01197547820332    -0.44325592810548
    5     0.02847350675467     0.41814906664374    -0.51660530735444    -0.43896129372181     0.39114345406471
    6     0.62544840257518     0.17432486059807     0.54841377639205    -0.51047429442597    -0.07670360295506
    7    -1.15897665801269    -0.50350535545544     1.07209213809622    -1.34992174201887     2.25987971507810
    8    -0.11572699836640    -0.27593026310601     0.76956635318010     1.13878341678549    -1.18634144446208
    9    -0.57994879793369     0.09028312493972    -0.73744215479749     1.10321150209610    -0.53377485026845
   10    -0.01018203640840     0.06738902323112    -0.04089378348997     0.02457285378388     0.02419087107694
   11     0.06462119595794    -0.04366738094062     0.04859821671580     0.16114559726212     0.18189217696050
   12     0.07559819684216     0.06890078488129    -0.04263023490570     0.08018940024139     0.05183154770707
   13    -0.00260082414167     0.03403003091781    -0.03185665222299    -0.01662653526396    -0.03978402858341
   14    -0.04679964122791     0.00544028966096    -0.00439316754715    -0.08214466289778    -0.06463454319072
   15     0.40103218421378     0.42686489702241    -0.12043786982428     0.46127469445012    -0.02145251639485
   16     0.18505047807303     0.12062493593813    -0.53860342346853    -1.14020754193917    -0.83780823870068
   17    -0.05845301132179     0.11344604220706     0.03264959571287     0.00972706141825     0.06375501323715
   18     0.13799400810149    -0.03940443603313    -0.08288852778569     0.06772840778680     0.14513439753466
   19     0.17180099767988    -0.00156038825387    -0.07117850040985     0.02715017564860     0.03454404426943
   20     0.01457934635642    -0.43197149240781     0.15660597116280    -0.04963673282880     0.41081485731884
   21    -0.68037886032193     0.13337580364176     0.98787504564656    -0.32093320107917    -0.81078410946528
   22    -0.00313970974215     0.06108154095676     0.13315510186486    -0.00476334682799     0.05657601587633
   23    -0.02110120988460     0.01220007802359    -0.16162830906750    -0.13384761206527    -0.10150102978940
   24    -0.03020222966770    -0.08120560918909     0.02710465186677    -0.03568204538476    -0.01758330195467
   25    -0.23098278185084     0.58391772301451     0.18506935320627     0.07639031758261    -0.51716696429707
   26     0.69713608285676    -0.50600215964685    -0.22072345567894     2.33173463869366    -0.18281635649166
   27    -0.00868509157068     0.15253596476292     0.03600800241881    -0.12170509238968     0.00196620412629
   28     0.14236441361480    -0.05413681993443    -0.03608262667876     0.15575550740423     0.14302357416884
   29     0.13986691023144     0.01283146771090    -0.09997925666573     0.10320244296078     0.05072018259620
   30    -0.04958949568167    -0.38708680946111    -0.19351320495166    -0.37530098694521     0.13566636997972
   31     0.39413464726040     0.27143152382272    -0.10950118836577    -0.14333286810467     2.43595438161995
   32    -0.03070756274092     0.09745006526665     0.03378842597609     0.00002330776044     0.12650844415425
   33    -0.04419806966734    -0.00160657162973    -0.12395025429610    -0.14382610456481    -0.15596966185980
   34    -0.03010844424018    -0.10199613208930     0.05578995378069    -0.02067355550902    -0.03964044941704

                16                  17                  18                  19                  20

    1     0.55567019300023     0.21838053047897     0.00249609385153     0.02948452493083     0.01615789709052
    2     1.28204632822855     0.50339615950287     0.02688272625917     0.06039239321829     0.03167190695949
    3    -3.02384041173752    -1.44055446469959     0.09115751913874    -0.16761264547209    -0.02206910914700
    4    -0.05465104421269     0.35840792606158     0.06232370549624    -0.04060973034166    -0.00920328313319
    5    -0.13413778723885     0.48667103487339     0.14808270945583     0.06144251043012    -0.00747593080951
    6     0.13587995759391     0.04850948600001     0.01337726036095    -0.14551882434037    -0.02450645868123
    7     0.19393968709133    -1.52066537958377     0.79589917947669    -0.11732419439844     0.05170725552678
    8     0.14292197112379    -0.70597311493547     0.16725395449431     0.03850255709572     0.19529250899201
    9    -0.46695253175410     0.09838398733918    -0.12099986778288    -0.20453728393730     0.02244465127369
   10    -0.28688010884422    -0.22532141285236     0.08104723325624    -0.06105518505150     0.10289686136960
   11    -0.15373321399507     0.09274891663386    -0.10044412212708    -0.28904686959728     0.15701741507399
   12     0.14811059418501    -0.20305361336715     0.17575120264844     0.13903033450776     0.28499005524087
   13     0.07715129387616    -0.09425107926376     0.15649290136205    -0.58515531991024    -0.20452754896603
   14     0.04375771924724     0.03805728778847    -0.22418709540469    -0.17557979093332     0.75671466224901
   15    -0.04341508715372    -0.09552081078263    -0.38718130850830     0.06625155038079     0.01587964153793
   16     1.33261584549998     2.58205212095300    -0.22508979923178     0.10907328557661    -0.16220275858616
   17    -0.23702540206237    -0.26564024856922    -0.12496213109597     0.03099091617487     0.01993230638748
   18    -0.05307702657238    -0.05727484946113    -0.23028644318889    -0.22805288332316    -0.04544416222328
   19    -0.00710340995632    -0.16810496118573     0.07459027862867     0.24991934389764     0.20357995161266
   20    -0.12051640692752     0.16663514199548     0.33504820408443     0.03376079821746     0.01892627986910
   21     2.22392345310962    -2.07692886963247     0.05870241754845    -0.00961261171659     0.16097676867469
   22     0.21789009752623    -0.01726402819334    -0.19857148770656     0.10103670234775    -0.12985990361164
   23     0.18222433135259    -0.17115274524804    -0.21947247264518     0.08863041006512     0.00791341925292
   24    -0.17476043857615     0.12621030536151    -0.11430300752849     0.31541133872044    -0.18296300113685
   25     0.10017218805285     0.46391054751887     0.05201985099722    -0.07426107615048     0.12574051754751
   26    -0.35737879126298    -1.16827926065486    -0.14894007580625     0.00792661991166     0.08114285186437
   27    -0.13061815921279    -0.04208655520153    -0.01561137709359     0.03330763960241    -0.10891636987362
   28    -0.02294631351321    -0.05689424552048    -0.34758663862561     0.03519628310355    -0.15859588789907
   29     0.03910180472019    -0.17712416388384     0.11934004633121     0.18088106335664    -0.13948614502256
   30     0.38340179797294    -0.31602122878791    -0.06992920078682    -0.10634366029142    -0.10933365881080
   31    -1.15911979437965     1.65211558793341     0.24748009358051     0.06481643746101    -0.10030691648539
   32     0.06733666539830     0.11518855696474    -0.10786271822481     0.06184639487019     0.03332446831042
   33     0.14809424190745    -0.21109762921281    -0.27914421163665    -0.14473891898663    -0.17206016100042
   34    -0.08254741792199     0.08152088634926    -0.24704716049253     0.11217342091723     0.16611772757393

                21                  22                  23                  24                  25

    1     0.06882814844890     0.29446310998919     0.26067449576327     0.06670466839488     0.01063583416348
    2     0.11628220611800     0.73345560224073     0.52306741388345     0.09178750974539     0.00262435153334
    3    -0.41478203990869    -0.19108157146902    -0.33321651669781    -0.57042205192022    -0.25859802467830
    4    -0.04668900236523    -0.05307874380457    -0.10980140715859    -0.08114950168023     0.05892896851343
    5     0.03344923574985     0.00538532881220     0.00278905362183    -0.00779128632335     0.10547584506283
    6    -0.10823201134486     0.01421261307402     0.10574205490729    -0.07925084644824    -0.14285428307513
    7    -0.14019867156197    -0.09992112342791    -0.12668684634550    -0.60587027358192     0.59316042698126
    8     0.07110622793728    -0.02080401679446    -0.08938009378800     0.15587179820043    -0.13316004915977
    9    -0.34669538213942    -0.07506417538268     0.06032637834157     0.05993426655536    -0.29688084709751
   10    -0.13508359835175    -0.23991919163404    -0.44076661804992     0.14149581202807     0.09998560506930
   11     0.04981200430281     0.28966316420223    -0.41484430631576     0.06058077160688     0.22508939808212
   12    -0.09766195829996     0.20442903043848     0.05426469794145     0.04986676629380    -0.17811867642486
   13     0.52779945579561    -0.00225339751916     0.21159577982531    -0.08606804239922    -0.08672318375154
   14     0.14723376346317    -0.10068827647893     0.13872135375633    -0.14713697298946    -0.11300629401570
   15     0.19374757510088    -0.01897283078627     0.25759947279381     0.47986500844055    -0.08190628042214
   16     0.18500078054053     0.26531482948592    -0.11653523000597     0.37441999503259     0.08582395828100
   17     0.08004059679596    -0.02526193121660     0.39679303602206     0.04293749680013    -0.12522722030609
   18     0.01078678577826    -0.00813693928076     0.10191173227800     0.51904027026681    -0.51985549603476
   19     0.14397908604761    -0.00849642107907     0.34052015945086     0.22418182374644     0.64356170916114
   20     0.15777261290763     0.01523068561318     0.24510301647699     0.01092077347630     0.38113228991851
   21     0.08759701673021     0.04904311557422    -0.55916154761503     0.14190708385176     0.30429325023351
   22     0.01683191616917    -0.05934877799572    -0.45407171576203     0.51469647071418    -0.04684564749452
   23    -0.12184942501263     0.05688494521494    -0.33551056899390    -0.05440794363136    -0.64655388151314
   24     0.22078767240256     0.03744297353271     0.47715920660224     0.62087782854690    -0.37360806470947
   25    -0.03102579090134     0.31366836596945     0.09592187184331     0.45061342783334    -0.07043466501833
   26    -0.04060406070979    -0.43886713076061     0.11113148577065    -0.10225387491641    -0.33433177473584
   27    -0.03318691320800     0.57586517050164    -0.12896366377545    -0.39005385596294     0.07964859601542
   28    -0.23419470149991    -0.17482789323807     0.40090714169544    -0.63038094628835     0.17412732693112
   29     0.45863851037668    -0.06755323806917    -0.41284971378082    -0.21900904920504    -0.40909705699082
   30    -0.01441090060403     0.20736132685142     0.05473489739378     0.08990233330430     0.45321162678036
   31    -0.02654091653389    -0.34450674226766     0.31387728879457    -0.38907675250787    -0.12005745478260
   32     0.25993560591610    -0.47509771683662     0.01825316347818    -0.36469766323930     0.33259676618686
   33     0.01399381547672     0.19512461033183     0.02664559568296     0.18894158365360     0.76164772970394
   34     0.36596137229600     0.28430666397552    -0.42294648561981    -0.44973936355064     0.24178917729381

                26                  27                  28                  29                  30

    1     0.05956168029467     0.03928270114190     0.15888235915415     0.04674774311644     0.01264946197513
    2     0.10605076300840     0.09659944021083     0.31076124989733     0.05266461082470    -0.11571578275703
    3    -0.05326857731544     0.07911173009130    -0.23081558357053    -0.30411829722722    -0.79278331019951
    4     0.04842122474186    -0.83575370115010     0.19077115143915     0.50797837126046     0.91550198614057
    5     0.09624781133269     0.41520420285479    -0.18798032061260    -0.13449541088627     0.30321045250928
    6     0.01688871962090     0.38496777054652     0.11461997674946    -0.23474158520260    -0.19128589391206
    7     0.01221508795576    -0.81184899175381     0.11547191636642    -1.10121082667802     0.50444843328266
    8     0.21033910126413     0.36492380995837    -0.15021548266769     0.27033916361299     0.20342193992907
    9     0.04421989792441     0.32494486333760    -0.03411073499363     0.31942074158975    -0.12514074425145
   10    -0.49590426822656     0.11650813651371    -0.05328532494474    -0.42040966418486    -0.43476930547346
   11     0.20896769413995    -0.03693831935764    -0.37691179345982     0.01221329990382    -0.17889278208545
   12    -0.65705861024123    -0.12337818804639     0.20254243375035    -0.45814942305069     1.16018995288490
   13    -0.40479470611011    -0.04333757883814    -0.43788555250645     0.07405758142875     0.26587250272001
   14     0.32776762267987    -0.20385698091324    -0.16842370656733    -0.35338201426531     0.02815906999384
   15     0.07739967619748     0.27493646218173     0.12048321423541     0.55555001138039    -0.21605324093923
   16    -0.40041467125642     0.04447449836825    -0.00151902458963     0.05581847974832    -0.41944732147755
   17     0.25891544806528     0.10490034773373     0.24217185775628     0.37456533114993     0.71978575894638
   18    -0.01993288546417    -0.09018167685008     0.72054849567105     0.10182392931486    -0.05784924617107
   19     0.07826039740089    -0.00315625372731    -0.55912490617634     0.68944092737946    -0.52044712576883
   20     0.02110763256535    -0.39829354280944     0.23628503368522    -0.36897935467654     0.67545752751413
   21     0.33146016376450    -0.06654380900022    -0.25450090913511     0.00017815102255     0.86003814760580
[...]
                     7   0.2886137555  -8.14e-04    1.77e-02      N
                     8   0.3209580482  -2.39e-03    3.50e-02      N
Iter=9    L=72    Root    EOM Energy     Delta E   Res. Norm    Conv?
                     1   0.0932488769  -1.11e-07    6.13e-05      N
                     2   0.1327887121  -2.14e-07    6.01e-05      N
                     3   0.2312844827  -1.88e-06    1.78e-04      N
                     4   0.2628320506  -5.50e-05    4.09e-03      N
                     5   0.2692718078  -2.60e-05    3.38e-03      N
                     6   0.2733722923  -7.06e-05    4.41e-03      N
                     7   0.2884431930  -1.71e-04    6.30e-03      N
                     8   0.3201752521  -7.83e-04    1.44e-02      N
Iter=10   L=80    Root    EOM Energy     Delta E   Res. Norm    Conv?
                     1   0.0932489659   8.90e-08    1.94e-05      N
                     2   0.1327887278   1.57e-08    1.66e-05      N
                     3   0.2312837997  -6.83e-07    6.45e-05      N
                     4   0.2628239163  -8.13e-06    1.41e-03      N
                     5   0.2692662340  -5.57e-06    1.21e-03      N
                     6   0.2733674888  -4.80e-06    1.72e-03      N
                     7   0.2884346220  -8.57e-06    2.30e-03      N
                     8   0.3200825686  -9.27e-05    5.38e-03      N
Iter=11   L=88    Root    EOM Energy     Delta E   Res. Norm    Conv?
                     1   0.0932490112   4.53e-08    5.55e-06      N
                     2   0.1327887608   3.30e-08    5.01e-06      N
                     3   0.2312837142  -8.54e-08    2.13e-05      N
                     4   0.2628235603  -3.56e-07    5.45e-04      N
                     5   0.2692643898  -1.84e-06    4.71e-04      N
                     6   0.2733637183  -3.77e-06    6.38e-04      N
                     7   0.2884365828   1.96e-06    8.98e-04      N
                     8   0.3200636455  -1.89e-05    2.13e-03      N
Iter=12   L=96    Root    EOM Energy     Delta E   Res. Norm    Conv?
                     1   0.0932490050  -6.15e-09    1.56e-06      N
                     2   0.1327887649   4.18e-09    1.45e-06      N
                     3   0.2312836811  -3.31e-08    6.30e-06      N
                     4   0.2628222688  -1.29e-06    2.01e-04      N
                     5   0.2692631538  -1.24e-06    1.76e-04      N
                     6   0.2733632463  -4.72e-07    2.06e-04      N
                     7   0.2884364953  -8.75e-08    3.31e-04      N
                     8   0.3200614395  -2.21e-06    8.28e-04      N
Iter=13   L=16    Root    EOM Energy     Delta E   Res. Norm    Conv?
                     1   0.0932490050  -4.36e-14    1.56e-06      N
                     2   0.1327887649   9.65e-14    1.45e-06      N
                     3   0.2312836811  -1.21e-13    6.30e-06      N
                     4   0.2628222688  -1.14e-14    2.01e-04      N
                     5   0.2692631538  -3.54e-14    1.76e-04      N
                     6   0.2733632463  -3.16e-15    2.06e-04      N
                     7   0.2884364953   1.83e-14    3.31e-04      N
                     8   0.3200614395   4.44e-15    8.28e-04      N
Iter=14   L=24    Root    EOM Energy     Delta E   Res. Norm    Conv?
                     1   0.0932490056   5.05e-10    4.09e-07      Y
                     2   0.1327887629  -2.00e-09    4.22e-07      Y
                     3   0.2312836773  -3.86e-09    1.96e-06      N
                     4   0.2628219898  -2.79e-07    6.41e-05      N
                     5   0.2692630712  -8.26e-08    5.60e-05      N
                     6   0.2733630570  -1.89e-07    6.61e-05      N
                     7   0.2884364764  -1.89e-08    1.09e-04      N
                     8   0.3200601204  -1.32e-06    2.99e-04      N
Iter=15   L=30    Root    EOM Energy     Delta E   Res. Norm    Conv?
                     1   0.0932490042  -1.39e-09    1.59e-07      Y
                     2   0.1327887622  -7.09e-10    1.34e-07      Y
                     3   0.2312836767  -5.15e-10    6.07e-07      Y
                     4   0.2628220053   1.55e-08    2.07e-05      N
                     5   0.2692630339  -3.73e-08    1.80e-05      N
                     6   0.2733630581   1.06e-09    2.30e-05      N
                     7   0.2884364937   1.73e-08    3.76e-05      N
                     8   0.3200596909  -4.29e-07    1.10e-04      N
Iter=16   L=35    Root    EOM Energy     Delta E   Res. Norm    Conv?
                     1   0.0932490040  -1.69e-10    1.20e-07      Y
                     2   0.1327887623   7.42e-11    9.89e-08      Y
                     3   0.2312836762  -5.77e-10    2.21e-07      Y
                     4   0.2628219994  -5.87e-09    6.84e-06      N
                     5   0.2692630614   2.75e-08    6.01e-06      N
                     6   0.2733630998   4.18e-08    7.55e-06      N
                     7   0.2884365673   7.36e-08    1.27e-05      N
                     8   0.3200595773  -1.14e-07    3.86e-05      N
Iter=17   L=40    Root    EOM Energy     Delta E   Res. Norm    Conv?
                     1   0.0932490040  -8.06e-13    1.16e-07      Y
                     2   0.1327887623   3.13e-11    9.78e-08      Y
                     3   0.2312836760  -1.71e-10    1.34e-07      Y
                     4   0.2628219844  -1.51e-08    2.32e-06      N
                     5   0.2692630682   6.83e-09    2.06e-06      N
                     6   0.2733631096   9.75e-09    2.59e-06      N
                     7   0.2884365628  -4.45e-09    4.58e-06      N
                     8   0.3200595147  -6.26e-08    1.52e-05      N
Iter=18   L=45    Root    EOM Energy     Delta E   Res. Norm    Conv?
                     1   0.0932490040   3.36e-11    1.16e-07      Y
                     2   0.1327887623  -8.17e-12    9.68e-08      Y
                     3   0.2312836759  -1.15e-10    1.26e-07      Y
                     4   0.2628219769  -7.49e-09    8.96e-07      Y
                     5   0.2692630666  -1.57e-09    7.98e-07      Y
                     6   0.2733631096   3.21e-11    1.07e-06      N
                     7   0.2884365561  -6.72e-09    2.04e-06      N
                     8   0.3200594827  -3.21e-08    8.70e-06      N
Iter=19   L=48    Root    EOM Energy     Delta E   Res. Norm    Conv?
                     1   0.0932490040  -5.49e-12    1.16e-07      Y
                     2   0.1327887623  -5.99e-13    9.66e-08      Y
                     3   0.2312836758  -3.92e-11    1.25e-07      Y
                     4   0.2628219720  -4.83e-09    4.36e-07      Y
                     5   0.2692630630  -3.65e-09    4.05e-07      Y
                     6   0.2733631102   5.64e-10    5.38e-07      Y
                     7   0.2884365475  -8.57e-09    1.32e-06      N
                     8   0.3200594208  -6.19e-08    1.03e-05      N
Iter=20   L=50    Root    EOM Energy     Delta E   Res. Norm    Conv?
                     1   0.0932490040   6.72e-12    1.16e-07      Y
                     2   0.1327887623   5.49e-12    9.67e-08      Y
                     3   0.2312836758   5.74e-12    1.25e-07      Y
                     4   0.2628219710  -1.03e-09    2.35e-07      Y
                     5   0.2692630617  -1.25e-09    2.20e-07      Y
                     6   0.2733631091  -1.04e-09    3.13e-07      Y
                     7   0.2884365397  -7.81e-09    8.28e-07      Y
                     8   0.3200593508  -7.00e-08    1.04e-05      N
Iter=21   L=51    Root    EOM Energy     Delta E   Res. Norm    Conv?
                     1   0.0932490040   8.30e-13    1.16e-07      Y
                     2   0.1327887623  -1.77e-12    9.67e-08      Y
                     3   0.2312836758   5.05e-12    1.25e-07      Y
                     4   0.2628219706  -4.50e-10    1.60e-07      Y
                     5   0.2692630619   1.21e-10    1.53e-07      Y
                     6   0.2733631086  -5.67e-10    2.45e-07      Y
                     7   0.2884365366  -3.09e-09    5.53e-07      Y
                     8   0.3200593060  -4.48e-08    8.33e-06      N
Iter=22   L=52    Root    EOM Energy     Delta E   Res. Norm    Conv?
                     1   0.0932490041   1.94e-11    1.15e-07      Y
                     2   0.1327887623  -1.61e-12    9.67e-08      Y
                     3   0.2312836758  -1.55e-12    1.25e-07      Y
                     4   0.2628219708   2.20e-10    1.38e-07      Y
                     5   0.2692630620   1.14e-10    1.37e-07      Y
                     6   0.2733631078  -8.02e-10    2.22e-07      Y
                     7   0.2884365346  -2.03e-09    4.16e-07      Y
                     8   0.3200593024  -3.62e-09    7.64e-06      N
Iter=23   L=53    Root    EOM Energy     Delta E   Res. Norm    Conv?
                     1   0.0932490041   2.03e-11    1.15e-07      Y
                     2   0.1327887623   6.72e-12    9.69e-08      Y
                     3   0.2312836758  -9.89e-13    1.25e-07      Y
                     4   0.2628219707  -1.02e-10    1.28e-07      Y
                     5   0.2692630620   2.79e-11    1.32e-07      Y
                     6   0.2733631073  -4.25e-10    2.13e-07      Y
                     7   0.2884365337  -8.81e-10    3.14e-07      Y
                     8   0.3200593061   3.69e-09    6.38e-06      N
Iter=24   L=54    Root    EOM Energy     Delta E   Res. Norm    Conv?
                     1   0.0932490041   2.95e-12    1.15e-07      Y
                     2   0.1327887623   2.31e-12    9.67e-08      Y
                     3   0.2312836758   4.83e-12    1.25e-07      Y
                     4   0.2628219707   7.06e-11    1.26e-07      Y
                     5   0.2692630620   5.58e-12    1.32e-07      Y
                     6   0.2733631071  -2.17e-10    2.10e-07      Y
                     7   0.2884365335  -2.51e-10    2.52e-07      Y
                     8   0.3200593180   1.19e-08    4.01e-06      N
Iter=25   L=55    Root    EOM Energy     Delta E   Res. Norm    Conv?
                     1   0.0932490041  -1.36e-11    1.15e-07      Y
                     2   0.1327887623  -2.39e-12    9.66e-08      Y
                     3   0.2312836758  -1.70e-12    1.25e-07      Y
                     4   0.2628219708   2.84e-11    1.25e-07      Y
                     5   0.2692630620  -1.11e-11    1.32e-07      Y
                     6   0.2733631071  -2.00e-11    2.10e-07      Y
                     7   0.2884365335   4.30e-11    2.40e-07      Y
                     8   0.3200593279   9.94e-09    2.51e-06      N
Iter=26   L=56    Root    EOM Energy     Delta E   Res. Norm    Conv?
                     1   0.0932490040  -1.41e-11    1.15e-07      Y
                     2   0.1327887623   6.48e-12    9.64e-08      Y
                     3   0.2312836758   2.86e-12    1.25e-07      Y
                     4   0.2628219708   1.05e-11    1.25e-07      Y
                     5   0.2692630620  -5.18e-12    1.32e-07      Y
                     6   0.2733631071  -1.46e-12    2.10e-07      Y
                     7   0.2884365336   1.31e-10    2.34e-07      Y
                     8   0.3200593367   8.75e-09    1.29e-06      N
Iter=27   L=57    Root    EOM Energy     Delta E   Res. Norm    Conv?
                     1   0.0932490040  -4.66e-14    1.15e-07      Y
                     2   0.1327887623  -3.43e-12    9.65e-08      Y
                     3   0.2312836758  -5.31e-12    1.25e-07      Y
                     4   0.2628219708  -3.67e-12    1.25e-07      Y
                     5   0.2692630620  -1.77e-11    1.32e-07      Y
                     6   0.2733631071   3.36e-12    2.11e-07      Y
                     7   0.2884365337   8.01e-11    2.34e-07      Y
                     8   0.3200593372   5.40e-10    6.79e-07      Y
Collapsing to only 8 vector(s).

Procedure converged for 8 root(s).
Energy written to CC_INFO:Etot  -39.4530090360
States per irrep written to CC_INFO.
EOM CCSD R0 for root 0 =  -0.10340671321
EOM CCSD R0 for root 1 =  -0.01836505475
EOM CCSD R0 for root 2 =  -0.00068167309
EOM CCSD R0 for root 3 =  -0.03319864402
EOM CCSD R0 for root 4 =   0.05295300038
EOM CCSD R0 for root 5 =   0.02053760930
EOM CCSD R0 for root 6 =   0.00007413140
EOM CCSD R0 for root 7 =   0.12306304351

Final Energetic Summary for Converged Roots of Irrep A
                     Excitation Energy              Total Energy
                (eV)     (cm^-1)     (au)             (au)
EOM State 1      2.537    20465.8   0.0932490040   -39.679819369138

Largest components of excited wave function #1:
 RIA (libdpd indices) : (cscf notation)
         4 >   0      :        5a >     6a :   -0.6633948179
         4 >   4      :        5a >    10a :   -0.0545689900
         4 >   3      :        5a >     9a :   -0.0423405074
         4 >   1      :        5a >     7a :    0.0346178475
         4 >  10      :        5a >    16a :    0.0335624488
 RIjAb (libdpd indices)     : (cscf notation)
        4   4 >   0   0     :     5a     5a >     6a     6a :   -0.1824048708
        1   4 >   0   0     :     2a     5a >     6a     6a :   -0.0708891896
        4   1 >   0   0     :     5a     2a >     6a     6a :   -0.0708891896
        4   4 >   0   4     :     5a     5a >     6a    10a :   -0.0389416287
        4   4 >   4   0     :     5a     5a >    10a     6a :   -0.0389416287
EOM State 2      3.613    29143.8   0.1327887623   -39.640279610857

Largest components of excited wave function #2:
 RIA (libdpd indices) : (cscf notation)
         3 >   0      :        4a >     6a :   -0.6742291862
         3 >   4      :        4a >    10a :   -0.0731737121
         3 >   3      :        4a >     9a :   -0.0377475439
         3 >  10      :        4a >    16a :    0.0367382091
         4 >   0      :        5a >     6a :    0.0312352694
 RIjAb (libdpd indices)     : (cscf notation)
        3   4 >   0   0     :     4a     5a >     6a     6a :   -0.0732425969
        4   3 >   0   0     :     5a     4a >     6a     6a :   -0.0732425969
        1   3 >   0   0     :     2a     4a >     6a     6a :   -0.0691282430
        3   1 >   0   0     :     4a     2a >     6a     6a :   -0.0691282430
        3   3 >   0   0     :     4a     4a >     6a     6a :   -0.0388581658
EOM State 3      6.294    50760.9   0.2312836758   -39.541784697339

Largest components of excited wave function #3:
 RIA (libdpd indices) : (cscf notation)
         4 >   1      :        5a >     7a :    0.6621183311
         4 >   6      :        5a >    12a :    0.0932203922
         3 >   1      :        4a >     7a :    0.0632554427
         4 >   7      :        5a >    13a :    0.0552766189
         4 >   0      :        5a >     6a :    0.0399011907
 RIjAb (libdpd indices)     : (cscf notation)
        3   4 >   0   0     :     4a     5a >     6a     6a :    0.0753883738
        4   3 >   0   0     :     5a     4a >     6a     6a :    0.0753883738
        1   4 >   0   1     :     2a     5a >     6a     7a :    0.0488185959
        4   1 >   1   0     :     5a     2a >     7a     6a :    0.0488185959
        4   4 >   0   1     :     5a     5a >     6a     7a :    0.0475079862
EOM State 4      7.152    57682.8   0.2628219708   -39.510246402402

Largest components of excited wave function #4:
 RIA (libdpd indices) : (cscf notation)
         3 >   1      :        4a >     7a :    0.4346295526
         4 >   2      :        5a >     8a :   -0.1863092311
         4 >   3      :        5a >     9a :   -0.0722751611
         3 >   6      :        4a >    12a :    0.0654116857
         3 >   3      :        4a >     9a :   -0.0620991168
 RIjAb (libdpd indices)     : (cscf notation)
        4   4 >   0   0     :     5a     5a >     6a     6a :   -0.5589935203
        3   3 >   0   0     :     4a     4a >     6a     6a :    0.3010038923
        4   4 >   0   4     :     5a     5a >     6a    10a :   -0.0949277031
        4   4 >   4   0     :     5a     5a >    10a     6a :   -0.0949277031
        4   4 >   0   3     :     5a     5a >     6a     9a :   -0.0738085288
EOM State 5      7.327    59096.4   0.2692630620   -39.503805311205

Largest components of excited wave function #5:
 RIA (libdpd indices) : (cscf notation)
         3 >   1      :        4a >     7a :    0.4423868559
         4 >   2      :        5a >     8a :    0.2972677743
         4 >   0      :        5a >     6a :   -0.0692773520
         3 >   6      :        4a >    12a :    0.0649510216
         4 >   4      :        5a >    10a :    0.0550097832
 RIjAb (libdpd indices)     : (cscf notation)
        4   4 >   0   0     :     5a     5a >     6a     6a :    0.5232168274
        3   3 >   0   0     :     4a     4a >     6a     6a :   -0.1247310640
        4   4 >   0   4     :     5a     5a >     6a    10a :    0.0941562922
        4   4 >   4   0     :     5a     5a >    10a     6a :    0.0941562922
        4   4 >   0   3     :     5a     5a >     6a     9a :    0.0635716860
EOM State 6      7.439    59996.3   0.2733631071   -39.499705266089

Largest components of excited wave function #6:
 RIA (libdpd indices) : (cscf notation)
         4 >   2      :        5a >     8a :   -0.1784574502
         4 >   3      :        5a >     9a :    0.0873955635
         4 >   4      :        5a >    10a :   -0.0846270162
         3 >   0      :        4a >     6a :    0.0650050292
         3 >   2      :        4a >     8a :   -0.0613525960
 RIjAb (libdpd indices)     : (cscf notation)
        3   4 >   0   0     :     4a     5a >     6a     6a :   -0.6076585455
        4   3 >   0   0     :     5a     4a >     6a     6a :   -0.6076585455
        3   4 >   4   0     :     4a     5a >    10a     6a :   -0.1117653373
        4   3 >   0   4     :     5a     4a >     6a    10a :   -0.1117653373
        3   4 >   0   4     :     4a     5a >     6a    10a :   -0.0988890154
EOM State 7      7.849    63304.5   0.2884365337   -39.484631839464

Largest components of excited wave function #7:
 RIA (libdpd indices) : (cscf notation)
         4 >   2      :        5a >     8a :    0.5945851982
         3 >   2      :        4a >     8a :    0.0572455212
         3 >   1      :        4a >     7a :   -0.0559569795
         4 >   4      :        5a >    10a :    0.0551616047
         4 >  10      :        5a >    16a :   -0.0410673258
 RIjAb (libdpd indices)     : (cscf notation)
        3   3 >   0   0     :     4a     4a >     6a     6a :    0.3102309833
        4   4 >   0   0     :     5a     5a >     6a     6a :   -0.2356656855
        3   4 >   0   0     :     4a     5a >     6a     6a :   -0.1166608973
        4   3 >   0   0     :     5a     4a >     6a     6a :   -0.1166608973
        4   4 >   2   2     :     5a     5a >     8a     8a :   -0.0608385938
EOM State 8      8.709    70244.9   0.3200593372   -39.453009035972

Largest components of excited wave function #8:
 RIA (libdpd indices) : (cscf notation)
         4 >   3      :        5a >     9a :    0.2537565010
         3 >   2      :        4a >     8a :    0.2105896713
         4 >   2      :        5a >     8a :   -0.1218226886
         3 >   3      :        4a >     9a :   -0.1022747542
         1 >   0      :        2a >     6a :    0.0935774079
 RIjAb (libdpd indices)     : (cscf notation)
        3   3 >   0   0     :     4a     4a >     6a     6a :    0.6665795310
        4   4 >   0   0     :     5a     5a >     6a     6a :    0.2802515611
        3   3 >   0   4     :     4a     4a >     6a    10a :    0.1240384579
        3   3 >   4   0     :     4a     4a >    10a     6a :    0.1240384579
        3   4 >   0   0     :     4a     5a >     6a     6a :    0.0876988106

	Putting into environment energy for root of R irrep 1 and root 8.
	Putting into environment CURRENT ENERGY:              -39.4530090360

	Total # of sigma evaluations: 137

    Psi4 stopped on: Wednesday, 09 December 2020 05:49PM
    Psi4 wall time for execution: 0:00:07.38

*** Psi4 exiting successfully. Buy a developer a beer!
